/*--------------------------------*- C++ -*----------------------------------*\
  =========                 |
  \\      /  F ield         | OpenFOAM: The Open Source CFD Toolbox
   \\    /   O peration     | Website:  https://openfoam.org
    \\  /    A nd           | Version:  9
     \\/     M anipulation  |
\*---------------------------------------------------------------------------*/
FoamFile
{
    format      ascii;
    class       volScalarField;
    location    "0.1";
    object      p;
}
// * * * * * * * * * * * * * * * * * * * * * * * * * * * * * * * * * * * * * //

dimensions      [0 2 -2 0 0 0 0];

internalField   nonuniform List<scalar> 
400
(
1.63472e-06
2.94314e-06
3.22433e-06
3.15363e-06
2.8832e-06
2.52616e-06
2.16099e-06
1.81215e-06
1.4733e-06
1.14812e-06
8.26786e-07
5.06223e-07
1.8934e-07
-1.39008e-07
-4.99126e-07
-8.8863e-07
-1.26394e-06
-1.53273e-06
-1.6136e-06
-1.03511e-06
1.47415e-06
2.64383e-06
2.90053e-06
2.87797e-06
2.67062e-06
2.37641e-06
2.06016e-06
1.74812e-06
1.43522e-06
1.12653e-06
8.20344e-07
5.15281e-07
2.13514e-07
-9.69139e-08
-4.30514e-07
-7.82644e-07
-1.11417e-06
-1.34132e-06
-1.42792e-06
-9.29928e-07
1.39762e-06
2.48595e-06
2.68324e-06
2.67736e-06
2.50651e-06
2.25514e-06
1.97563e-06
1.693e-06
1.40248e-06
1.10918e-06
8.17546e-07
5.26588e-07
2.36662e-07
-6.05468e-08
-3.73476e-07
-6.97227e-07
-1.00036e-06
-1.20993e-06
-1.34022e-06
-8.92501e-07
1.36189e-06
2.43931e-06
2.55155e-06
2.53873e-06
2.3835e-06
2.15919e-06
1.90612e-06
1.64565e-06
1.37499e-06
1.09709e-06
8.18343e-07
5.38143e-07
2.56685e-07
-3.0305e-08
-3.26769e-07
-6.30059e-07
-9.18461e-07
-1.13154e-06
-1.32944e-06
-8.84201e-07
1.32768e-06
2.44231e-06
2.46778e-06
2.43803e-06
2.28676e-06
2.07868e-06
1.84666e-06
1.60416e-06
1.35135e-06
1.08834e-06
8.19652e-07
5.46581e-07
2.72083e-07
-4.65256e-09
-2.85965e-07
-5.73336e-07
-8.54625e-07
-1.08148e-06
-1.35213e-06
-8.75111e-07
1.28961e-06
2.46912e-06
2.41268e-06
2.36155e-06
2.20818e-06
2.0089e-06
1.79448e-06
1.5688e-06
1.33097e-06
1.07953e-06
8.18172e-07
5.50831e-07
2.83511e-07
1.76794e-08
-2.49227e-07
-5.23469e-07
-8.01606e-07
-1.0461e-06
-1.38774e-06
-8.59721e-07
1.25241e-06
2.51124e-06
2.38107e-06
2.30556e-06
2.14688e-06
1.95212e-06
1.7513e-06
1.53991e-06
1.31325e-06
1.06941e-06
8.13148e-07
5.51096e-07
2.91409e-07
3.65499e-08
-2.17261e-07
-4.80857e-07
-7.58224e-07
-1.02085e-06
-1.42666e-06
-8.38988e-07
1.21862e-06
2.55807e-06
2.36568e-06
2.2662e-06
2.10139e-06
1.90917e-06
1.71793e-06
1.51695e-06
1.29758e-06
1.05819e-06
8.05659e-07
5.48901e-07
2.97129e-07
5.27545e-08
-1.89703e-07
-4.44911e-07
-7.22681e-07
-1.00156e-06
-1.4611e-06
-8.14315e-07
1.18983e-06
2.59987e-06
2.35991e-06
2.24062e-06
2.07047e-06
1.87964e-06
1.69411e-06
1.49925e-06
1.28375e-06
1.04677e-06
7.9743e-07
5.46147e-07
3.02212e-07
6.72573e-08
-1.66015e-07
-4.15009e-07
-6.93473e-07
-9.84847e-07
-1.48489e-06
-7.87313e-07
1.16796e-06
2.63029e-06
2.35972e-06
2.22721e-06
2.05318e-06
1.8624e-06
1.67885e-06
1.48609e-06
1.27176e-06
1.03613e-06
7.89985e-07
5.4428e-07
3.07574e-07
8.03392e-08
-1.46323e-07
-3.91202e-07
-6.69948e-07
-9.68616e-07
-1.49364e-06
-7.597e-07
1.15495e-06
2.64605e-06
2.36315e-06
2.22493e-06
2.04846e-06
1.8559e-06
1.67074e-06
1.47658e-06
1.26152e-06
1.02691e-06
7.84282e-07
5.44006e-07
3.1332e-07
9.15239e-08
-1.31365e-07
-3.74022e-07
-6.52012e-07
-9.51748e-07
-1.48453e-06
-7.3297e-07
1.15186e-06
2.64566e-06
2.36945e-06
2.23296e-06
2.05517e-06
1.85865e-06
1.66846e-06
1.47e-06
1.25294e-06
1.01949e-06
7.80732e-07
5.45392e-07
3.19002e-07
9.99838e-08
-1.2198e-07
-3.63918e-07
-6.39622e-07
-9.33831e-07
-1.45634e-06
-7.08246e-07
1.1583e-06
2.62901e-06
2.37882e-06
2.25111e-06
2.0728e-06
1.87006e-06
1.6717e-06
1.46649e-06
1.24646e-06
1.01427e-06
7.79469e-07
5.48146e-07
3.23975e-07
1.04994e-07
-1.18626e-07
-3.6087e-07
-6.32593e-07
-9.15278e-07
-1.40993e-06
-6.86396e-07
1.17233e-06
2.59778e-06
2.3931e-06
2.28072e-06
2.10247e-06
1.89142e-06
1.68198e-06
1.46773e-06
1.24357e-06
1.01223e-06
7.80722e-07
5.51916e-07
3.27701e-07
1.06272e-07
-1.21131e-07
-3.64378e-07
-6.30825e-07
-8.97773e-07
-1.3489e-06
-6.68269e-07
1.19088e-06
2.55637e-06
2.41634e-06
2.32502e-06
2.14697e-06
1.92551e-06
1.70222e-06
1.47662e-06
1.24671e-06
1.01481e-06
7.84873e-07
5.56406e-07
3.29897e-07
1.04151e-07
-1.28651e-07
-3.7378e-07
-6.34757e-07
-8.84537e-07
-1.27996e-06
-6.54662e-07
1.21006e-06
2.5124e-06
2.45429e-06
2.38785e-06
2.20891e-06
1.97449e-06
1.73458e-06
1.49536e-06
1.25764e-06
1.02287e-06
7.91878e-07
5.6117e-07
3.30465e-07
9.94684e-08
-1.39852e-07
-3.88655e-07
-6.45673e-07
-8.79676e-07
-1.21156e-06
-6.45521e-07
1.22616e-06
2.47742e-06
2.51352e-06
2.47155e-06
2.28838e-06
2.03743e-06
1.7781e-06
1.52333e-06
1.27573e-06
1.03537e-06
8.00606e-07
5.65507e-07
3.29482e-07
9.31131e-08
-1.53378e-07
-4.08896e-07
-6.65435e-07
-8.8699e-07
-1.15205e-06
-6.39044e-07
1.24473e-06
2.48129e-06
2.61528e-06
2.58911e-06
2.39254e-06
2.11747e-06
1.83361e-06
1.56013e-06
1.29952e-06
1.05003e-06
8.09095e-07
5.6934e-07
3.27483e-07
8.4324e-08
-1.70534e-07
-4.36733e-07
-6.99503e-07
-9.16407e-07
-1.11837e-06
-6.37282e-07
1.28963e-06
2.5761e-06
2.79474e-06
2.76256e-06
2.53423e-06
2.22082e-06
1.90273e-06
1.60442e-06
1.32657e-06
1.06477e-06
8.16148e-07
5.72105e-07
3.24639e-07
7.2912e-08
-1.9289e-07
-4.74959e-07
-7.54774e-07
-9.84016e-07
-1.14177e-06
-6.5493e-07
1.39447e-06
2.79551e-06
3.06922e-06
3.00484e-06
2.72201e-06
2.35232e-06
1.98753e-06
1.65628e-06
1.35647e-06
1.07996e-06
8.22388e-07
5.73556e-07
3.20222e-07
5.8422e-08
-2.22004e-07
-5.27332e-07
-8.3804e-07
-1.10136e-06
-1.25024e-06
-7.15371e-07
)
;

boundaryField
{
    top
    {
        type            zeroGradient;
    }
    bottom
    {
        type            zeroGradient;
    }
    inlet
    {
        type            fixedValue;
        value           uniform 0;
    }
    outlet
    {
        type            fixedValue;
        value           uniform 0;
    }
    frontAndBack
    {
        type            empty;
    }
}


// ************************************************************************* //
