/*--------------------------------*- C++ -*----------------------------------*\
  =========                 |
  \\      /  F ield         | OpenFOAM: The Open Source CFD Toolbox
   \\    /   O peration     | Website:  https://openfoam.org
    \\  /    A nd           | Version:  9
     \\/     M anipulation  |
\*---------------------------------------------------------------------------*/
FoamFile
{
    format      ascii;
    class       surfaceScalarField;
    location    "0.1";
    object      phi;
}
// * * * * * * * * * * * * * * * * * * * * * * * * * * * * * * * * * * * * * //

dimensions      [0 3 -1 0 0 0 0];

internalField   nonuniform List<scalar> 
760
(
3.62045e-07
-1.01715e-11
3.62056e-07
-1.01059e-11
3.62064e-07
-8.23453e-12
3.6207e-07
-6.35225e-12
3.62075e-07
-4.55732e-12
3.62078e-07
-3.0281e-12
3.6208e-07
-1.94006e-12
3.62081e-07
-1.20609e-12
3.62082e-07
-7.0081e-13
3.62082e-07
-4.11357e-13
3.62082e-07
-1.70799e-13
3.62082e-07
7.32765e-14
3.62082e-07
3.29326e-13
3.62081e-07
6.93309e-13
3.6208e-07
1.2929e-12
3.62078e-07
2.2294e-12
3.62074e-07
3.51709e-12
3.62069e-07
5.03849e-12
3.62062e-07
7.02029e-12
7.85928e-12
1.10323e-06
-2.5835e-11
1.10325e-06
-2.90344e-11
1.10327e-06
-2.54598e-11
1.10328e-06
-2.02918e-11
1.10329e-06
-1.49641e-11
1.1033e-06
-1.02715e-11
1.10331e-06
-6.74421e-12
1.10331e-06
-4.28942e-12
1.10331e-06
-2.57275e-12
1.10331e-06
-1.46159e-12
1.10331e-06
-5.96279e-13
1.10331e-06
2.34076e-13
1.10331e-06
1.19642e-12
1.10331e-06
2.55632e-12
1.10331e-06
4.61173e-12
1.1033e-06
7.61305e-12
1.10329e-06
1.15677e-11
1.10328e-06
1.60273e-11
1.10327e-06
2.04533e-11
1.99916e-11
1.89567e-06
-4.08442e-11
1.89569e-06
-4.83764e-11
1.8957e-06
-4.39163e-11
1.89572e-06
-3.57813e-11
1.89573e-06
-2.69085e-11
1.89574e-06
-1.8893e-11
1.89575e-06
-1.26425e-11
1.89575e-06
-8.17049e-12
1.89575e-06
-5.00167e-12
1.89575e-06
-2.85105e-12
1.89575e-06
-1.17104e-12
1.89575e-06
4.27951e-13
1.89575e-06
2.30322e-12
1.89575e-06
4.91067e-12
1.89575e-06
8.7325e-12
1.89574e-06
1.41569e-11
1.89573e-06
2.11214e-11
1.89572e-06
2.86877e-11
1.8957e-06
3.49477e-11
3.19703e-11
2.77348e-06
-5.25121e-11
2.7735e-06
-6.35199e-11
2.77351e-06
-5.92016e-11
2.77353e-06
-4.91762e-11
2.77354e-06
-3.76513e-11
2.77354e-06
-2.69604e-11
2.77355e-06
-1.83663e-11
2.77355e-06
-1.20709e-11
2.77356e-06
-7.52307e-12
2.77356e-06
-4.3205e-12
2.77356e-06
-1.79514e-12
2.77356e-06
6.04641e-13
2.77356e-06
3.41229e-12
2.77356e-06
7.25231e-12
2.77355e-06
1.276e-11
2.77355e-06
2.04127e-11
2.77354e-06
3.00257e-11
2.77352e-06
4.01175e-11
2.77351e-06
4.73761e-11
4.20058e-11
3.7707e-06
-5.98015e-11
3.77071e-06
-7.28308e-11
3.77072e-06
-6.91728e-11
3.77073e-06
-5.84559e-11
3.77074e-06
-4.55247e-11
3.77075e-06
-3.32107e-11
3.77075e-06
-2.30323e-11
3.77076e-06
-1.53862e-11
3.77076e-06
-9.75384e-12
3.77076e-06
-5.66408e-12
3.77076e-06
-2.39006e-12
3.77076e-06
7.27471e-13
3.77076e-06
4.34964e-12
3.77076e-06
9.22009e-12
3.77075e-06
1.6068e-11
3.77075e-06
2.53997e-11
3.77074e-06
3.68903e-11
3.77073e-06
4.85894e-11
3.77072e-06
5.61701e-11
4.90919e-11
4.92097e-06
-6.22466e-11
4.92097e-06
-7.56691e-11
4.92097e-06
-7.28219e-11
4.92098e-06
-6.24973e-11
4.92098e-06
-4.94928e-11
4.92099e-06
-3.67786e-11
4.92099e-06
-2.59869e-11
4.92099e-06
-1.76579e-11
4.92099e-06
-1.13876e-11
4.92099e-06
-6.70347e-12
4.92099e-06
-2.88215e-12
4.92099e-06
7.74409e-13
4.92099e-06
4.98729e-12
4.92099e-06
1.05528e-11
4.92099e-06
1.82237e-11
4.92099e-06
2.84791e-11
4.92098e-06
4.08753e-11
4.92098e-06
5.31652e-11
4.92097e-06
6.05236e-11
5.26563e-11
6.25703e-06
-5.98841e-11
6.25703e-06
-7.20984e-11
6.25703e-06
-6.99597e-11
6.25702e-06
-6.09056e-11
6.25702e-06
-4.90877e-11
6.25702e-06
-3.7208e-11
6.25703e-06
-2.68401e-11
6.25703e-06
-1.85928e-11
6.25703e-06
-1.22162e-11
6.25703e-06
-7.30675e-12
6.25703e-06
-3.20971e-12
6.25703e-06
7.41397e-13
6.25703e-06
5.25473e-12
6.25703e-06
1.11077e-11
6.25703e-06
1.90054e-11
6.25703e-06
2.93541e-11
6.25703e-06
4.16395e-11
6.25702e-06
5.35372e-11
6.25702e-06
6.02564e-11
5.25624e-11
7.81008e-06
-5.31517e-11
7.81008e-06
-6.27183e-11
7.81007e-06
-6.10453e-11
7.81006e-06
-5.39132e-11
7.81005e-06
-4.43622e-11
7.81005e-06
-3.44424e-11
7.81005e-06
-2.54804e-11
7.81005e-06
-1.80762e-11
7.81005e-06
-1.21416e-11
7.81005e-06
-7.40146e-12
7.81005e-06
-3.33069e-12
7.81005e-06
6.41279e-13
7.81005e-06
5.14166e-12
7.81005e-06
1.08618e-11
7.81005e-06
1.83957e-11
7.81005e-06
2.80415e-11
7.81005e-06
3.927e-11
7.81006e-06
4.99009e-11
7.81006e-06
5.56515e-11
4.90087e-11
9.60879e-06
-4.28185e-11
9.60878e-06
-4.85685e-11
9.60876e-06
-4.7076e-11
9.60875e-06
-4.22994e-11
9.60874e-06
-3.58418e-11
9.60874e-06
-2.87976e-11
9.60873e-06
-2.20681e-11
9.60873e-06
-1.61748e-11
9.60873e-06
-1.11805e-11
9.60873e-06
-6.98042e-12
9.60873e-06
-3.22801e-12
9.60873e-06
4.99005e-13
9.60873e-06
4.6911e-12
9.60873e-06
9.89895e-12
9.60873e-06
1.65542e-11
9.60874e-06
2.48214e-11
9.60874e-06
3.42035e-11
9.60875e-06
4.28474e-11
9.60876e-06
4.73505e-11
4.24672e-11
1.16781e-05
-2.99304e-11
1.16781e-05
-3.10613e-11
1.16781e-05
-2.95025e-11
1.16781e-05
-2.73126e-11
1.16781e-05
-2.44684e-11
1.16781e-05
-2.09214e-11
1.16781e-05
-1.70109e-11
1.16781e-05
-1.31253e-11
1.16781e-05
-9.45951e-12
1.16781e-05
-6.10079e-12
1.16781e-05
-2.91245e-12
1.16781e-05
3.44579e-13
1.16781e-05
3.9858e-12
1.16781e-05
8.38453e-12
1.16781e-05
1.3776e-11
1.16781e-05
2.01737e-11
1.16781e-05
2.71393e-11
1.16781e-05
3.32673e-11
1.16781e-05
3.62779e-11
3.36363e-11
1.40382e-05
-1.5748e-11
1.40382e-05
-1.19114e-11
1.40381e-05
-1.01439e-11
1.40381e-05
-1.05796e-11
1.40381e-05
-1.15234e-11
1.40381e-05
-1.17341e-11
1.40381e-05
-1.09209e-11
1.40381e-05
-9.30808e-12
1.40381e-05
-7.19948e-12
1.40381e-05
-4.87687e-12
1.40381e-05
-2.42244e-12
1.40381e-05
2.05711e-13
1.40381e-05
3.13125e-12
1.40381e-05
6.5351e-12
1.40381e-05
1.04417e-11
1.40381e-05
1.47053e-11
1.40381e-05
1.89488e-11
1.40381e-05
2.22575e-11
1.40381e-05
2.35734e-11
2.33933e-11
1.67026e-05
-1.66693e-12
1.67026e-05
6.95595e-12
1.67025e-05
8.92356e-12
1.67025e-05
6.01313e-12
1.67025e-05
1.48003e-12
1.67025e-05
-2.34244e-12
1.67025e-05
-4.5518e-12
1.67025e-05
-5.20432e-12
1.67025e-05
-4.68957e-12
1.67025e-05
-3.46614e-12
1.67025e-05
-1.82033e-12
1.67025e-05
1.01828e-13
1.67025e-05
2.23812e-12
1.67025e-05
4.58519e-12
1.67025e-05
6.96428e-12
1.67025e-05
9.07326e-12
1.67025e-05
1.05788e-11
1.67025e-05
1.10233e-11
1.67025e-05
1.05161e-11
1.27365e-11
1.96773e-05
1.08845e-11
1.96773e-05
2.3534e-11
1.96773e-05
2.55238e-11
1.96773e-05
2.04849e-11
1.96773e-05
1.2944e-11
1.96773e-05
6.07725e-12
1.96773e-05
1.2878e-12
1.96773e-05
-1.33774e-12
1.96773e-05
-2.25055e-12
1.96773e-05
-2.04888e-12
1.96773e-05
-1.18447e-12
1.96773e-05
4.07037e-14
1.96773e-05
1.40652e-12
1.96773e-05
2.75581e-12
1.96773e-05
3.73722e-12
1.96773e-05
3.90807e-12
1.96773e-05
2.95316e-12
1.96773e-05
7.71628e-13
1.96773e-05
-1.56569e-12
2.71343e-12
2.29596e-05
2.05699e-11
2.29596e-05
3.59057e-11
2.29596e-05
3.75955e-11
2.29596e-05
3.09807e-11
2.29596e-05
2.13795e-11
2.29596e-05
1.24292e-11
2.29596e-05
5.84206e-12
2.29596e-05
1.79777e-12
2.29596e-05
-1.89526e-13
2.29596e-05
-8.02389e-13
2.29596e-05
-5.97716e-13
2.29596e-05
1.83862e-14
2.29596e-05
7.14084e-13
2.29596e-05
1.22758e-12
2.29596e-05
1.08771e-12
2.29596e-05
-2.57381e-13
2.29596e-05
-3.12662e-12
2.29596e-05
-7.40411e-12
2.29596e-05
-1.14032e-11
-5.66465e-12
2.65369e-05
2.62902e-11
2.65369e-05
4.24665e-11
2.65369e-05
4.34747e-11
2.65369e-05
3.60486e-11
2.65369e-05
2.56397e-11
2.65369e-05
1.58744e-11
2.65369e-05
8.53076e-12
2.65369e-05
3.81857e-12
2.65369e-05
1.24963e-12
2.65369e-05
1.27407e-13
2.65369e-05
-1.33472e-13
2.65369e-05
2.23418e-14
2.65369e-05
2.09069e-13
2.65369e-05
1.20994e-13
2.65369e-05
-7.60334e-13
2.65369e-05
-3.04859e-12
2.65369e-05
-7.0732e-12
2.65369e-05
-1.26465e-11
2.65369e-05
-1.79131e-11
-1.1525e-11
3.03866e-05
2.73541e-11
3.03866e-05
4.22056e-11
3.03866e-05
4.22434e-11
3.03866e-05
3.49637e-11
3.03866e-05
2.51774e-11
3.03866e-05
1.60155e-11
3.03866e-05
9.07286e-12
3.03866e-05
4.52901e-12
3.03866e-05
1.93315e-12
3.03866e-05
6.53017e-13
3.03866e-05
1.58425e-13
3.03866e-05
3.64713e-14
3.03866e-05
-9.1518e-14
3.03866e-05
-5.13939e-13
3.03866e-05
-1.71153e-12
3.03866e-05
-4.29574e-12
3.03866e-05
-8.59394e-12
3.03866e-05
-1.44582e-11
3.03866e-05
-2.03428e-11
-1.42499e-11
3.44758e-05
2.3685e-11
3.44758e-05
3.50697e-11
3.44758e-05
3.41371e-11
3.44758e-05
2.80657e-11
3.44758e-05
2.02885e-11
3.44758e-05
1.30592e-11
3.44758e-05
7.58703e-12
3.44758e-05
3.98067e-12
3.44758e-05
1.87119e-12
3.44758e-05
7.65303e-13
3.44758e-05
2.62479e-13
3.44758e-05
4.66797e-14
3.44758e-05
-2.00246e-13
3.44758e-05
-6.9768e-13
3.44758e-05
-1.80962e-12
3.44758e-05
-4.06483e-12
3.44758e-05
-7.75677e-12
3.44758e-05
-1.28291e-11
3.44758e-05
-1.84383e-11
-1.36089e-11
3.87625e-05
1.60563e-11
3.87625e-05
2.24398e-11
3.87626e-05
2.09727e-11
3.87626e-05
1.70445e-11
3.87626e-05
1.22852e-11
3.87626e-05
7.91433e-12
3.87626e-05
4.64229e-12
3.87626e-05
2.49583e-12
3.87626e-05
1.22853e-12
3.87626e-05
5.39951e-13
3.87626e-05
2.05664e-13
3.87626e-05
4.17245e-14
3.87626e-05
-1.58679e-13
3.87626e-05
-5.10903e-13
3.87626e-05
-1.23007e-12
3.87626e-05
-2.6765e-12
3.87626e-05
-5.04856e-12
3.87626e-05
-8.36841e-12
3.87626e-05
-1.26341e-11
-9.87567e-12
4.31967e-05
6.53318e-12
4.31967e-05
8.25949e-12
4.31967e-05
7.11507e-12
4.31967e-05
5.61853e-12
4.31968e-05
3.9694e-12
4.31968e-05
2.49873e-12
4.31968e-05
1.44252e-12
4.31968e-05
7.74175e-13
4.31968e-05
3.82842e-13
4.31968e-05
1.6367e-13
4.31968e-05
6.39174e-14
4.31968e-05
2.60836e-14
4.31968e-05
-4.24087e-14
4.31968e-05
-1.60073e-13
4.31968e-05
-3.85661e-13
4.31968e-05
-8.71131e-13
4.31968e-05
-1.69595e-12
4.31968e-05
-2.90554e-12
4.31967e-05
-4.92294e-12
-4.24179e-12
4.7722e-05
4.7722e-05
4.7722e-05
4.7722e-05
4.7722e-05
4.7722e-05
4.7722e-05
4.7722e-05
4.7722e-05
4.7722e-05
4.7722e-05
4.7722e-05
4.7722e-05
4.7722e-05
4.7722e-05
4.7722e-05
4.7722e-05
4.7722e-05
4.7722e-05
)
;

boundaryField
{
    top
    {
        type            calculated;
        value           uniform 0;
    }
    bottom
    {
        type            calculated;
        value           uniform 0;
    }
    inlet
    {
        type            calculated;
        value           nonuniform List<scalar> 
20
(
-3.62035e-07
-1.10322e-06
-1.89565e-06
-2.77347e-06
-3.7707e-06
-4.92097e-06
-6.25704e-06
-7.81009e-06
-9.6088e-06
-1.16782e-05
-1.40382e-05
-1.67026e-05
-1.96774e-05
-2.29597e-05
-2.6537e-05
-3.03866e-05
-3.44758e-05
-3.87625e-05
-4.31967e-05
-4.7722e-05
)
;
    }
    outlet
    {
        type            calculated;
        value           nonuniform List<scalar> 
20
(
3.62054e-07
1.10326e-06
1.89569e-06
2.7735e-06
3.77072e-06
4.92097e-06
6.25703e-06
7.81007e-06
9.60876e-06
1.16781e-05
1.40381e-05
1.67025e-05
1.96773e-05
2.29596e-05
2.65369e-05
3.03866e-05
3.44758e-05
3.87626e-05
4.31967e-05
4.7722e-05
)
;
    }
    frontAndBack
    {
        type            empty;
        value           nonuniform List<scalar> 0();
    }
}


// ************************************************************************* //
