/*--------------------------------*- C++ -*----------------------------------*\
  =========                 |
  \\      /  F ield         | OpenFOAM: The Open Source CFD Toolbox
   \\    /   O peration     | Website:  https://openfoam.org
    \\  /    A nd           | Version:  9
     \\/     M anipulation  |
\*---------------------------------------------------------------------------*/
FoamFile
{
    format      ascii;
    class       volVectorField;
    location    "0.1";
    object      U;
}
// * * * * * * * * * * * * * * * * * * * * * * * * * * * * * * * * * * * * * //

dimensions      [0 1 -1 0 0 0 0];

internalField   nonuniform List<vector> 
400
(
(0.00724078 -4.96811e-08 0)
(0.007241 -5.01368e-08 0)
(0.0072412 -3.99732e-08 0)
(0.00724135 -3.04366e-08 0)
(0.00724146 -2.14426e-08 0)
(0.00724153 -1.37749e-08 0)
(0.00724158 -8.74209e-09 0)
(0.00724161 -5.07669e-09 0)
(0.00724163 -2.78649e-09 0)
(0.00724164 -1.95323e-09 0)
(0.00724164 -8.30151e-10 0)
(0.00724164 5.74284e-10 0)
(0.00724164 1.72217e-09 0)
(0.00724163 3.0833e-09 0)
(0.00724161 5.57498e-09 0)
(0.00724158 9.80553e-09 0)
(0.00724152 1.57439e-08 0)
(0.00724144 2.28568e-08 0)
(0.00724131 3.29623e-08 0)
(0.00724114 3.75733e-08 0)
(0.0220645 -1.75244e-07 0)
(0.0220648 -1.86831e-07 0)
(0.0220652 -1.5783e-07 0)
(0.0220655 -1.23279e-07 0)
(0.0220658 -8.93656e-08 0)
(0.022066 -6.00962e-08 0)
(0.0220661 -3.87453e-08 0)
(0.0220662 -2.44288e-08 0)
(0.0220662 -1.44329e-08 0)
(0.0220662 -8.20278e-09 0)
(0.0220662 -3.38472e-09 0)
(0.0220663 1.31965e-09 0)
(0.0220662 6.66607e-09 0)
(0.0220662 1.42982e-08 0)
(0.0220662 2.62416e-08 0)
(0.0220661 4.42621e-08 0)
(0.0220659 6.86671e-08 0)
(0.0220658 9.72423e-08 0)
(0.0220655 1.30079e-07 0)
(0.0220652 1.35041e-07 0)
(0.0379131 -3.36625e-07 0)
(0.0379135 -3.90826e-07 0)
(0.0379139 -3.49262e-07 0)
(0.0379142 -2.81244e-07 0)
(0.0379145 -2.09176e-07 0)
(0.0379147 -1.45018e-07 0)
(0.0379149 -9.60133e-08 0)
(0.037915 -6.12453e-08 0)
(0.037915 -3.70161e-08 0)
(0.0379151 -2.11329e-08 0)
(0.0379151 -8.53567e-09 0)
(0.0379151 3.56218e-09 0)
(0.0379151 1.7473e-08 0)
(0.037915 3.68671e-08 0)
(0.037915 6.58663e-08 0)
(0.0379149 1.07763e-07 0)
(0.0379147 1.62276e-07 0)
(0.0379145 2.22597e-07 0)
(0.0379142 2.76872e-07 0)
(0.0379139 2.60489e-07 0)
(0.0554695 -4.75858e-07 0)
(0.0554697 -5.70511e-07 0)
(0.0554701 -5.25278e-07 0)
(0.0554704 -4.31965e-07 0)
(0.0554706 -3.27502e-07 0)
(0.0554708 -2.31849e-07 0)
(0.055471 -1.56334e-07 0)
(0.0554711 -1.01971e-07 0)
(0.0554711 -6.28724e-08 0)
(0.0554712 -3.56922e-08 0)
(0.0554712 -1.45743e-08 0)
(0.0554712 5.3336e-09 0)
(0.0554712 2.87408e-08 0)
(0.0554711 6.11886e-08 0)
(0.0554711 1.08334e-07 0)
(0.055471 1.74586e-07 0)
(0.0554708 2.58758e-07 0)
(0.0554706 3.48675e-07 0)
(0.0554703 4.17717e-07 0)
(0.0554701 3.75579e-07 0)
(0.075414 -5.7377e-07 0)
(0.0754141 -6.97287e-07 0)
(0.0754144 -6.56815e-07 0)
(0.0754146 -5.50178e-07 0)
(0.0754148 -4.24707e-07 0)
(0.0754149 -3.06882e-07 0)
(0.075415 -2.10714e-07 0)
(0.0754151 -1.39475e-07 0)
(0.0754151 -8.75306e-08 0)
(0.0754152 -5.03747e-08 0)
(0.0754152 -2.09957e-08 0)
(0.0754152 6.86612e-09 0)
(0.0754152 3.94369e-08 0)
(0.0754152 8.37271e-08 0)
(0.0754151 1.46677e-07 0)
(0.075415 2.33305e-07 0)
(0.0754149 3.41024e-07 0)
(0.0754148 4.523e-07 0)
(0.0754145 5.27736e-07 0)
(0.0754144 4.63917e-07 0)
(0.0984194 -6.22779e-07 0)
(0.0984193 -7.58471e-07 0)
(0.0984194 -7.26118e-07 0)
(0.0984195 -6.18563e-07 0)
(0.0984196 -4.857e-07 0)
(0.0984197 -3.57563e-07 0)
(0.0984197 -2.50106e-07 0)
(0.0984198 -1.68283e-07 0)
(0.0984198 -1.07483e-07 0)
(0.0984199 -6.27802e-08 0)
(0.0984199 -2.67296e-08 0)
(0.0984199 7.66219e-09 0)
(0.0984199 4.75109e-08 0)
(0.0984199 1.00688e-07 0)
(0.0984198 1.74752e-07 0)
(0.0984198 2.74728e-07 0)
(0.0984197 3.9666e-07 0)
(0.0984196 5.19027e-07 0)
(0.0984195 5.94697e-07 0)
(0.0984195 5.18019e-07 0)
(0.125141 -6.22429e-07 0)
(0.125141 -7.53839e-07 0)
(0.125141 -7.29585e-07 0)
(0.125141 -6.30991e-07 0)
(0.12514 -5.04005e-07 0)
(0.12514 -3.78092e-07 0)
(0.125141 -2.69711e-07 0)
(0.125141 -1.84819e-07 0)
(0.125141 -1.20207e-07 0)
(0.125141 -7.13103e-08 0)
(0.125141 -3.10223e-08 0)
(0.125141 7.67268e-09 0)
(0.125141 5.20986e-08 0)
(0.125141 1.10289e-07 0)
(0.125141 1.89685e-07 0)
(0.125141 2.94793e-07 0)
(0.125141 4.20664e-07 0)
(0.125141 5.43853e-07 0)
(0.12514 6.14986e-07 0)
(0.125141 5.35253e-07 0)
(0.156202 -5.75424e-07 0)
(0.156202 -6.87144e-07 0)
(0.156201 -6.68943e-07 0)
(0.156201 -5.86832e-07 0)
(0.156201 -4.77622e-07 0)
(0.156201 -3.66022e-07 0)
(0.156201 -2.67064e-07 0)
(0.156201 -1.86968e-07 0)
(0.156201 -1.24096e-07 0)
(0.156201 -7.49161e-08 0)
(0.156201 -3.33458e-08 0)
(0.156201 6.96429e-09 0)
(0.156201 5.28412e-08 0)
(0.156201 1.11768e-07 0)
(0.156201 1.90369e-07 0)
(0.156201 2.92227e-07 0)
(0.156201 4.11973e-07 0)
(0.156201 5.2655e-07 0)
(0.156201 5.89513e-07 0)
(0.156201 5.16164e-07 0)
(0.192176 -4.87822e-07 0)
(0.192176 -5.66577e-07 0)
(0.192175 -5.51552e-07 0)
(0.192175 -4.91266e-07 0)
(0.192175 -4.09523e-07 0)
(0.192175 -3.22709e-07 0)
(0.192175 -2.42443e-07 0)
(0.192175 -1.74479e-07 0)
(0.192175 -1.18733e-07 0)
(0.192175 -7.32092e-08 0)
(0.192175 -3.34212e-08 0)
(0.192175 5.71596e-09 0)
(0.192175 4.99006e-08 0)
(0.192175 1.05441e-07 0)
(0.192175 1.77558e-07 0)
(0.192175 2.68608e-07 0)
(0.192175 3.73361e-07 0)
(0.192175 4.71253e-07 0)
(0.192175 5.23068e-07 0)
(0.192175 4.64194e-07 0)
(0.233563 -3.68767e-07 0)
(0.233563 -4.04453e-07 0)
(0.233562 -3.89768e-07 0)
(0.233562 -3.54615e-07 0)
(0.233562 -3.07204e-07 0)
(0.233562 -2.53084e-07 0)
(0.233561 -1.98774e-07 0)
(0.233561 -1.48926e-07 0)
(0.233561 -1.04867e-07 0)
(0.233561 -6.6465e-08 0)
(0.233561 -3.12353e-08 0)
(0.233561 4.19372e-09 0)
(0.233561 4.39116e-08 0)
(0.233561 9.25867e-08 0)
(0.233561 1.53601e-07 0)
(0.233561 2.27874e-07 0)
(0.233562 3.10699e-07 0)
(0.233562 3.8558e-07 0)
(0.233562 4.2365e-07 0)
(0.233562 3.85311e-07 0)
(0.280764 -2.29965e-07 0)
(0.280763 -2.16618e-07 0)
(0.280763 -2.002e-07 0)
(0.280763 -1.91549e-07 0)
(0.280762 -1.82046e-07 0)
(0.280762 -1.6519e-07 0)
(0.280762 -1.41308e-07 0)
(0.280762 -1.13505e-07 0)
(0.280762 -8.43127e-08 0)
(0.280762 -5.55862e-08 0)
(0.280762 -2.7054e-08 0)
(0.280762 2.69163e-09 0)
(0.280762 3.58502e-08 0)
(0.280762 7.51881e-08 0)
(0.280762 1.22003e-07 0)
(0.280762 1.75647e-07 0)
(0.280762 2.32083e-07 0)
(0.280762 2.79723e-07 0)
(0.280762 3.01778e-07 0)
(0.280763 2.87538e-07 0)
(0.334052 -8.49551e-08 0)
(0.334051 -2.15912e-08 0)
(0.334051 -2.69703e-09 0)
(0.334051 -2.00201e-08 0)
(0.33405 -4.8368e-08 0)
(0.33405 -6.94328e-08 0)
(0.33405 -7.70772e-08 0)
(0.33405 -7.26685e-08 0)
(0.33405 -5.9718e-08 0)
(0.33405 -4.19923e-08 0)
(0.33405 -2.14073e-08 0)
(0.33405 1.45282e-09 0)
(0.33405 2.68405e-08 0)
(0.33405 5.55876e-08 0)
(0.33405 8.68765e-08 0)
(0.33405 1.18458e-07 0)
(0.33405 1.46873e-07 0)
(0.33405 1.65468e-07 0)
(0.33405 1.6977e-07 0)
(0.334051 1.80426e-07 0)
(0.393547 5.18265e-08 0)
(0.393547 1.60546e-07 0)
(0.393546 1.80986e-07 0)
(0.393546 1.40149e-07 0)
(0.393546 7.78573e-08 0)
(0.393546 2.24582e-08 0)
(0.393546 -1.41098e-08 0)
(0.393545 -3.15869e-08 0)
(0.393545 -3.4225e-08 0)
(0.393545 -2.74256e-08 0)
(0.393545 -1.50214e-08 0)
(0.393545 6.19827e-10 0)
(0.393545 1.79765e-08 0)
(0.393545 3.6145e-08 0)
(0.393545 5.23918e-08 0)
(0.393545 6.29566e-08 0)
(0.393546 6.46933e-08 0)
(0.393546 5.51676e-08 0)
(0.393546 4.09136e-08 0)
(0.393546 7.44013e-08 0)
(0.459193 1.66207e-07 0)
(0.459193 3.09692e-07 0)
(0.459193 3.29082e-07 0)
(0.459192 2.69224e-07 0)
(0.459192 1.80744e-07 0)
(0.459192 9.88053e-08 0)
(0.459192 3.95717e-08 0)
(0.459192 4.54005e-09 0)
(0.459192 -1.10283e-08 0)
(0.459192 -1.36968e-08 0)
(0.459192 -8.7055e-09 0)
(0.459192 2.24384e-10 0)
(0.459192 1.01827e-08 0)
(0.459192 1.89376e-08 0)
(0.459192 2.22672e-08 0)
(0.459192 1.51378e-08 0)
(0.459192 -5.58546e-09 0)
(0.459192 -3.94096e-08 0)
(0.459192 -7.15618e-08 0)
(0.459193 -2.00393e-08 0)
(0.530739 2.45626e-07 0)
(0.530739 4.07656e-07 0)
(0.530739 4.22248e-07 0)
(0.530739 3.50004e-07 0)
(0.530739 2.46581e-07 0)
(0.530738 1.49562e-07 0)
(0.530738 7.70534e-08 0)
(0.530738 3.11952e-08 0)
(0.530738 7.05856e-09 0)
(0.530738 -2.4392e-09 0)
(0.530738 -3.24414e-09 0)
(0.530738 1.87101e-10 0)
(0.530738 4.10844e-09 0)
(0.530738 5.52859e-09 0)
(0.530738 -6.48497e-10 0)
(0.530738 -2.03284e-08 0)
(0.530738 -5.68171e-08 0)
(0.530739 -1.08257e-07 0)
(0.530739 -1.55648e-07 0)
(0.530739 -9.32525e-08 0)
(0.607731 2.80605e-07 0)
(0.607731 4.40507e-07 0)
(0.607731 4.46582e-07 0)
(0.607731 3.7073e-07 0)
(0.607731 2.66205e-07 0)
(0.607731 1.68019e-07 0)
(0.607731 9.3656e-08 0)
(0.607731 4.52362e-08 0)
(0.607731 1.7997e-08 0)
(0.607731 5.09251e-09 0)
(0.607731 6.88798e-10 0)
(0.607731 3.26941e-10 0)
(0.607731 6.4139e-11 0)
(0.607731 -3.19919e-09 0)
(0.607731 -1.46953e-08 0)
(0.607731 -4.06545e-08 0)
(0.607731 -8.44587e-08 0)
(0.607731 -1.44287e-07 0)
(0.607731 -2.01764e-07 0)
(0.607732 -1.37437e-07 0)
(0.689516 2.65826e-07 0)
(0.689516 4.00593e-07 0)
(0.689516 3.96146e-07 0)
(0.689516 3.27236e-07 0)
(0.689516 2.36621e-07 0)
(0.689516 1.51975e-07 0)
(0.689516 8.77173e-08 0)
(0.689516 4.5384e-08 0)
(0.689516 2.08109e-08 0)
(0.689516 8.19427e-09 0)
(0.689516 2.64327e-09 0)
(0.689516 4.08433e-10 0)
(0.689516 -1.94824e-09 0)
(0.689516 -7.00367e-09 0)
(0.689516 -1.94044e-08 0)
(0.689516 -4.50367e-08 0)
(0.689516 -8.68703e-08 0)
(0.689516 -1.43874e-07 0)
(0.689516 -2.03383e-07 0)
(0.689516 -1.47336e-07 0)
(0.775251 2.05097e-07 0)
(0.775251 2.95557e-07 0)
(0.775251 2.83061e-07 0)
(0.775251 2.3187e-07 0)
(0.775252 1.67868e-07 0)
(0.775252 1.08591e-07 0)
(0.775252 6.38664e-08 0)
(0.775252 3.43658e-08 0)
(0.775252 1.68598e-08 0)
(0.775252 7.31789e-09 0)
(0.775252 2.72613e-09 0)
(0.775252 5.79435e-10 0)
(0.775252 -2.07543e-09 0)
(0.775252 -6.93234e-09 0)
(0.775252 -1.66315e-08 0)
(0.775252 -3.59807e-08 0)
(0.775252 -6.75718e-08 0)
(0.775252 -1.11086e-07 0)
(0.775252 -1.62228e-07 0)
(0.775252 -1.23268e-07 0)
(0.863934 1.12083e-07 0)
(0.863934 1.49824e-07 0)
(0.863935 1.34636e-07 0)
(0.863935 1.07706e-07 0)
(0.863935 7.6965e-08 0)
(0.863935 4.92026e-08 0)
(0.863935 2.8767e-08 0)
(0.863935 1.55414e-08 0)
(0.863935 7.74994e-09 0)
(0.863935 3.44227e-09 0)
(0.863935 1.32276e-09 0)
(0.863935 2.79118e-10 0)
(0.863935 -1.0245e-09 0)
(0.863935 -3.2388e-09 0)
(0.863935 -7.81086e-09 0)
(0.863935 -1.71672e-08 0)
(0.863935 -3.27095e-08 0)
(0.863935 -5.51096e-08 0)
(0.863935 -8.76216e-08 0)
(0.863935 -7.17639e-08 0)
(0.954439 3.369e-08 0)
(0.954439 4.29039e-08 0)
(0.954439 3.61435e-08 0)
(0.95444 2.8315e-08 0)
(0.95444 2.00137e-08 0)
(0.95444 1.26534e-08 0)
(0.95444 7.47819e-09 0)
(0.95444 4.25226e-09 0)
(0.95444 2.23582e-09 0)
(0.95444 9.14828e-10 0)
(0.95444 3.10867e-10 0)
(0.95444 2.18505e-10 0)
(0.95444 -2.58642e-10 0)
(0.95444 -1.2343e-09 0)
(0.95444 -2.53932e-09 0)
(0.95444 -5.23792e-09 0)
(0.95444 -9.70365e-09 0)
(0.95444 -1.6006e-08 0)
(0.95444 -2.67198e-08 0)
(0.95444 -2.19632e-08 0)
)
;

boundaryField
{
    top
    {
        type            fixedValue;
        value           uniform (1 0 0);
    }
    bottom
    {
        type            fixedValue;
        value           uniform (0 0 0);
    }
    inlet
    {
        type            zeroGradient;
    }
    outlet
    {
        type            zeroGradient;
    }
    frontAndBack
    {
        type            empty;
    }
}


// ************************************************************************* //
