/*--------------------------------*- C++ -*----------------------------------*\
  =========                 |
  \\      /  F ield         | OpenFOAM: The Open Source CFD Toolbox
   \\    /   O peration     | Website:  https://openfoam.org
    \\  /    A nd           | Version:  9
     \\/     M anipulation  |
\*---------------------------------------------------------------------------*/
FoamFile
{
    format      ascii;
    class       volScalarField;
    location    "1";
    object      p;
}
// * * * * * * * * * * * * * * * * * * * * * * * * * * * * * * * * * * * * * //

dimensions      [0 2 -2 0 0 0 0];

internalField   nonuniform List<scalar> 
400
(
6.96745e-07
1.15605e-06
1.11559e-06
1.0587e-06
9.66907e-07
8.58882e-07
7.46847e-07
6.33377e-07
5.20316e-07
4.08508e-07
2.97372e-07
1.86138e-07
7.44999e-08
-3.75605e-08
-1.49997e-07
-2.6309e-07
-3.73928e-07
-4.74431e-07
-6.01807e-07
-3.80003e-07
6.61154e-07
1.1021e-06
1.05821e-06
1.02479e-06
9.46858e-07
8.47323e-07
7.40706e-07
6.3048e-07
5.19275e-07
4.08485e-07
2.97877e-07
1.86938e-07
7.55622e-08
-3.60335e-08
-1.47377e-07
-2.58148e-07
-3.64024e-07
-4.52246e-07
-5.87252e-07
-3.70145e-07
6.68874e-07
1.10788e-06
1.0266e-06
1.0034e-06
9.3293e-07
8.38571e-07
7.35794e-07
6.28048e-07
5.18318e-07
4.08352e-07
2.98195e-07
1.87533e-07
7.64055e-08
-3.48222e-08
-1.45418e-07
-2.54913e-07
-3.5883e-07
-4.41372e-07
-6.05832e-07
-3.83629e-07
6.94994e-07
1.15717e-06
1.02066e-06
9.94946e-07
9.25883e-07
8.33257e-07
7.32497e-07
6.26259e-07
5.17497e-07
4.08106e-07
2.98301e-07
1.87879e-07
7.69444e-08
-3.40808e-08
-1.44396e-07
-2.53783e-07
-3.58511e-07
-4.41863e-07
-6.43694e-07
-4.04553e-07
7.23669e-07
1.22512e-06
1.02802e-06
9.93817e-07
9.23003e-07
8.30122e-07
7.30241e-07
6.24869e-07
5.1674e-07
4.07778e-07
2.98269e-07
1.88054e-07
7.72465e-08
-3.37232e-08
-1.44104e-07
-2.5409e-07
-3.61104e-07
-4.47823e-07
-6.86064e-07
-4.24404e-07
7.50304e-07
1.2985e-06
1.04198e-06
9.96663e-07
9.22621e-07
8.28306e-07
7.28586e-07
6.23694e-07
5.16009e-07
4.07395e-07
2.98149e-07
1.88108e-07
7.73715e-08
-3.36495e-08
-1.44304e-07
-2.55233e-07
-3.65078e-07
-4.5569e-07
-7.24888e-07
-4.40493e-07
7.73982e-07
1.36995e-06
1.05871e-06
1.00142e-06
9.23562e-07
8.27215e-07
7.27228e-07
6.22604e-07
5.15274e-07
4.06972e-07
2.9797e-07
1.8808e-07
7.73736e-08
-3.3757e-08
-1.44769e-07
-2.56685e-07
-3.69329e-07
-4.63307e-07
-7.5607e-07
-4.5235e-07
7.93768e-07
1.43343e-06
1.07508e-06
1.00627e-06
9.24771e-07
8.2631e-07
7.25912e-07
6.21495e-07
5.1451e-07
4.06525e-07
2.97765e-07
1.88017e-07
7.73277e-08
-3.39144e-08
-1.45244e-07
-2.5794e-07
-3.72853e-07
-4.69057e-07
-7.76766e-07
-4.59525e-07
8.09055e-07
1.48423e-06
1.08858e-06
1.00982e-06
9.25425e-07
8.25194e-07
7.24467e-07
6.20309e-07
5.13717e-07
4.06079e-07
2.97574e-07
1.87976e-07
7.73203e-08
-3.39788e-08
-1.45479e-07
-2.58545e-07
-3.74843e-07
-4.71751e-07
-7.85367e-07
-4.61902e-07
8.19375e-07
1.51891e-06
1.09747e-06
1.01117e-06
9.25038e-07
8.23672e-07
7.22846e-07
6.19059e-07
5.12928e-07
4.05673e-07
2.97442e-07
1.88014e-07
7.74331e-08
-3.38226e-08
-1.45267e-07
-2.58167e-07
-3.74741e-07
-4.70705e-07
-7.81283e-07
-4.59526e-07
8.24377e-07
1.53522e-06
1.10079e-06
1.00999e-06
9.23482e-07
8.2177e-07
7.21132e-07
6.17831e-07
5.12213e-07
4.0536e-07
2.97412e-07
1.88175e-07
7.7728e-08
-3.33566e-08
-1.44478e-07
-2.56629e-07
-3.72287e-07
-4.65708e-07
-7.6482e-07
-4.52613e-07
8.2375e-07
1.53207e-06
1.09834e-06
1.00643e-06
9.20961e-07
8.19709e-07
7.19519e-07
6.16771e-07
5.11668e-07
4.05202e-07
2.97524e-07
1.88492e-07
7.8236e-08
-3.25472e-08
-1.43082e-07
-2.5393e-07
-3.67521e-07
-4.56986e-07
-7.37037e-07
-4.4149e-07
8.1721e-07
1.50956e-06
1.09071e-06
1.00115e-06
9.17978e-07
8.17869e-07
7.18285e-07
6.16063e-07
5.11408e-07
4.05261e-07
2.9781e-07
1.88975e-07
7.8951e-08
-3.14255e-08
-1.41159e-07
-2.50256e-07
-3.60791e-07
-4.45185e-07
-6.99681e-07
-4.26603e-07
8.04654e-07
1.46923e-06
1.07929e-06
9.953e-07
9.15275e-07
8.16737e-07
7.17739e-07
6.15901e-07
5.11541e-07
4.05593e-07
2.98286e-07
1.89611e-07
7.98281e-08
-3.00893e-08
-1.38902e-07
-2.45981e-07
-3.52751e-07
-4.31363e-07
-6.55174e-07
-4.08554e-07
7.86112e-07
1.41419e-06
1.06641e-06
9.90383e-07
9.13772e-07
8.16827e-07
7.18178e-07
6.16444e-07
5.12149e-07
4.06228e-07
2.98951e-07
1.90366e-07
8.07878e-08
-2.86942e-08
-1.36602e-07
-2.41643e-07
-3.44332e-07
-4.16974e-07
-6.06606e-07
-3.88121e-07
7.62118e-07
1.34946e-06
1.05513e-06
9.88181e-07
9.14395e-07
8.18601e-07
7.19807e-07
6.17784e-07
5.13263e-07
4.07166e-07
2.9978e-07
1.91185e-07
8.17245e-08
-2.74351e-08
-1.34614e-07
-2.37894e-07
-3.36678e-07
-4.03782e-07
-5.57727e-07
-3.66313e-07
7.33089e-07
1.28194e-06
1.04936e-06
9.90467e-07
9.17995e-07
8.22359e-07
7.2271e-07
6.19913e-07
5.14849e-07
4.08367e-07
3.00726e-07
1.91999e-07
8.25193e-08
-2.65254e-08
-1.33318e-07
-2.35441e-07
-3.31084e-07
-3.93917e-07
-5.12944e-07
-3.44205e-07
7.0334e-07
1.22515e-06
1.05575e-06
1.00007e-06
9.2568e-07
8.28514e-07
7.2698e-07
6.22832e-07
5.16881e-07
4.098e-07
3.01753e-07
1.92747e-07
8.30474e-08
-2.62054e-08
-1.33155e-07
-2.35139e-07
-3.29306e-07
-3.90781e-07
-4.79545e-07
-3.24731e-07
6.86713e-07
1.20441e-06
1.08661e-06
1.02169e-06
9.39443e-07
8.37796e-07
7.32894e-07
6.26643e-07
5.19421e-07
4.11515e-07
3.02892e-07
1.93421e-07
8.32374e-08
-2.66648e-08
-1.34562e-07
-2.37985e-07
-3.33659e-07
-3.99817e-07
-4.70386e-07
-3.16972e-07
7.08566e-07
1.24183e-06
1.14203e-06
1.05456e-06
9.58317e-07
8.49332e-07
7.39849e-07
6.30976e-07
5.2224e-07
4.13384e-07
3.04079e-07
1.94008e-07
8.31344e-08
-2.77662e-08
-1.37291e-07
-2.4357e-07
-3.43914e-07
-4.20849e-07
-4.9335e-07
-3.34526e-07
)
;

boundaryField
{
    top
    {
        type            zeroGradient;
    }
    bottom
    {
        type            zeroGradient;
    }
    inlet
    {
        type            fixedValue;
        value           uniform 0;
    }
    outlet
    {
        type            fixedValue;
        value           uniform 0;
    }
    frontAndBack
    {
        type            empty;
    }
}


// ************************************************************************* //
