/*--------------------------------*- C++ -*----------------------------------*\
  =========                 |
  \\      /  F ield         | OpenFOAM: The Open Source CFD Toolbox
   \\    /   O peration     | Website:  https://openfoam.org
    \\  /    A nd           | Version:  9
     \\/     M anipulation  |
\*---------------------------------------------------------------------------*/
FoamFile
{
    format      ascii;
    class       surfaceScalarField;
    location    "1";
    object      phi;
}
// * * * * * * * * * * * * * * * * * * * * * * * * * * * * * * * * * * * * * //

dimensions      [0 3 -1 0 0 0 0];

internalField   nonuniform List<scalar> 
760
(
1.24925e-06
-4.25126e-12
1.24925e-06
-3.5495e-12
1.24925e-06
-1.67921e-12
1.24925e-06
-9.42715e-13
1.24926e-06
-5.2821e-13
1.24926e-06
-2.76349e-13
1.24926e-06
-1.378e-13
1.24926e-06
-5.88695e-14
1.24926e-06
-1.58736e-14
1.24926e-06
4.92892e-15
1.24926e-06
1.42512e-14
1.24926e-06
1.87784e-14
1.24926e-06
2.28114e-14
1.24926e-06
3.13909e-14
1.24926e-06
5.41344e-14
1.24926e-06
1.18241e-13
1.24926e-06
2.68026e-13
1.24925e-06
5.89229e-13
1.24925e-06
1.84149e-12
2.12923e-12
3.74778e-06
-1.02201e-11
3.74778e-06
-9.59743e-12
3.74779e-06
-5.44757e-12
3.74779e-06
-3.19747e-12
3.74779e-06
-1.83852e-12
3.74779e-06
-9.94862e-13
3.74779e-06
-5.05119e-13
3.74779e-06
-2.23055e-13
3.74779e-06
-6.66048e-14
3.74779e-06
1.41645e-14
3.74779e-06
5.28635e-14
3.74779e-06
7.15249e-14
3.74779e-06
8.67732e-14
3.74779e-06
1.17877e-13
3.74779e-06
1.9866e-13
3.74779e-06
4.06633e-13
3.74779e-06
8.80658e-13
3.74779e-06
1.85285e-12
3.74778e-06
4.47711e-12
4.73624e-12
6.24636e-06
-1.55152e-11
6.24637e-06
-1.55871e-11
6.24637e-06
-9.82927e-12
6.24637e-06
-5.99318e-12
6.24638e-06
-3.52989e-12
6.24638e-06
-1.94996e-12
6.24638e-06
-1.00043e-12
6.24638e-06
-4.44692e-13
6.24638e-06
-1.32657e-13
6.24638e-06
3.15436e-14
6.24638e-06
1.11149e-13
6.24638e-06
1.48562e-13
6.24638e-06
1.76841e-13
6.24638e-06
2.33206e-13
6.24638e-06
3.79135e-13
6.24638e-06
7.40929e-13
6.24638e-06
1.5395e-12
6.24637e-06
3.10604e-12
6.24637e-06
6.51119e-12
6.51939e-12
8.74504e-06
-1.9448e-11
8.74504e-06
-2.02717e-11
8.74505e-06
-1.36727e-11
8.74505e-06
-8.62089e-12
8.74505e-06
-5.18381e-12
8.74505e-06
-2.9061e-12
8.74505e-06
-1.49807e-12
8.74505e-06
-6.61254e-13
8.74505e-06
-1.86699e-13
8.74505e-06
6.47171e-14
8.74505e-06
1.8574e-13
8.74505e-06
2.39476e-13
8.74505e-06
2.75133e-13
8.74505e-06
3.45722e-13
8.74505e-06
5.33958e-13
8.74505e-06
9.96084e-13
8.74505e-06
1.9966e-12
8.74505e-06
3.86693e-12
8.74505e-06
7.46064e-12
7.23594e-12
1.12438e-05
-2.1614e-11
1.12438e-05
-2.30207e-11
1.12438e-05
-1.62747e-11
1.12438e-05
-1.0541e-11
1.12439e-05
-6.44649e-12
1.12439e-05
-3.64922e-12
1.12439e-05
-1.87824e-12
1.12439e-05
-8.10771e-13
1.12439e-05
-2.0109e-13
1.12439e-05
1.21657e-13
1.12439e-05
2.73501e-13
1.12439e-05
3.3413e-13
1.12439e-05
3.64684e-13
1.12439e-05
4.27461e-13
1.12439e-05
6.13675e-13
1.12439e-05
1.08431e-12
1.12439e-05
2.1019e-12
1.12439e-05
3.93475e-12
1.12439e-05
7.19915e-12
6.82022e-12
1.37428e-05
-2.19108e-11
1.37428e-05
-2.36269e-11
1.37428e-05
-1.72735e-11
1.37428e-05
-1.14203e-11
1.37428e-05
-7.07107e-12
1.37428e-05
-4.01964e-12
1.37428e-05
-2.04757e-12
1.37428e-05
-8.44514e-13
1.37428e-05
-1.54657e-13
1.37428e-05
2.07504e-13
1.37428e-05
3.7065e-13
1.37428e-05
4.23505e-13
1.37428e-05
4.32284e-13
1.37428e-05
4.59652e-13
1.37428e-05
5.90763e-13
1.37428e-05
9.65859e-13
1.37428e-05
1.80938e-12
1.37428e-05
3.29208e-12
1.37428e-05
5.83728e-12
5.39042e-12
1.62419e-05
-2.04193e-11
1.62419e-05
-2.21445e-11
1.62419e-05
-1.65824e-11
1.62419e-05
-1.1121e-11
1.62419e-05
-6.93534e-12
1.62419e-05
-3.93009e-12
1.62419e-05
-1.95336e-12
1.62419e-05
-7.35693e-13
1.62419e-05
-3.75605e-14
1.62419e-05
3.22216e-13
1.62419e-05
4.71976e-13
1.62419e-05
5.00104e-13
1.62419e-05
4.69813e-13
1.62419e-05
4.34911e-13
1.62419e-05
4.60931e-13
1.62419e-05
6.46959e-13
1.62419e-05
1.15327e-12
1.62419e-05
2.04528e-12
1.62419e-05
3.59782e-12
3.14866e-12
1.87413e-05
-1.73723e-11
1.87413e-05
-1.8824e-11
1.87413e-05
-1.43268e-11
1.87413e-05
-9.6828e-12
1.87413e-05
-6.04075e-12
1.87413e-05
-3.37273e-12
1.87413e-05
-1.59026e-12
1.87413e-05
-4.84342e-13
1.87413e-05
1.45898e-13
1.87413e-05
4.59193e-13
1.87413e-05
5.70421e-13
1.87413e-05
5.58037e-13
1.87413e-05
4.74481e-13
1.87413e-05
3.56736e-13
1.87413e-05
2.40449e-13
1.87413e-05
1.69588e-13
1.87413e-05
2.25316e-13
1.87413e-05
3.72262e-13
1.87413e-05
7.69929e-13
3.56994e-13
2.12408e-05
-1.31051e-11
2.12408e-05
-1.40511e-11
2.12408e-05
-1.07965e-11
2.12408e-05
-7.29238e-12
2.12408e-05
-4.50081e-12
2.12408e-05
-2.41529e-12
2.12408e-05
-9.99982e-13
2.12408e-05
-1.17628e-13
2.12408e-05
3.77008e-13
2.12408e-05
6.05249e-13
2.12408e-05
6.57145e-13
2.12408e-05
5.92981e-13
2.12408e-05
4.48188e-13
2.12408e-05
2.37454e-13
2.12408e-05
-3.94654e-14
2.12408e-05
-4.00356e-13
2.12408e-05
-8.49772e-13
2.12408e-05
-1.51302e-12
2.12408e-05
-2.33518e-12
-2.70113e-12
2.37406e-05
-8.03162e-12
2.37406e-05
-8.31019e-12
2.37406e-05
-6.40141e-12
2.37406e-05
-4.25124e-12
2.37406e-05
-2.51955e-12
2.37406e-05
-1.18868e-12
2.37406e-05
-2.6412e-13
2.37406e-05
3.1421e-13
2.37406e-05
6.2507e-13
2.37406e-05
7.42026e-13
2.37406e-05
7.22245e-13
2.37406e-05
6.02162e-13
2.37406e-05
3.96447e-13
2.37406e-05
9.51795e-14
2.37406e-05
-3.39054e-13
2.37406e-05
-9.85645e-13
2.37406e-05
-1.93437e-12
2.37406e-05
-3.38906e-12
2.37406e-05
-5.40771e-12
-5.73807e-12
2.62406e-05
-2.61583e-12
2.62406e-05
-2.15078e-12
2.62406e-05
-1.6327e-12
2.62406e-05
-9.38616e-13
2.62406e-05
-3.63262e-13
2.62406e-05
1.32759e-13
2.62406e-05
5.08669e-13
2.62406e-05
7.45908e-13
2.62406e-05
8.5224e-13
2.62406e-05
8.48764e-13
2.62406e-05
7.56079e-13
2.62406e-05
5.84473e-13
2.62406e-05
3.27115e-13
2.62406e-05
-4.94578e-14
2.62406e-05
-6.16573e-13
2.62406e-05
-1.50886e-12
2.62406e-05
-2.89513e-12
2.62406e-05
-5.04701e-12
2.62406e-05
-8.15887e-12
-8.48099e-12
2.87408e-05
2.65433e-12
2.87408e-05
3.84227e-12
2.87408e-05
2.97621e-12
2.87408e-05
2.22889e-12
2.87408e-05
1.67366e-12
2.87408e-05
1.35674e-12
2.87408e-05
1.20001e-12
2.87408e-05
1.10826e-12
2.87408e-05
1.0202e-12
2.87408e-05
9.06063e-13
2.87408e-05
7.51047e-13
2.87408e-05
5.40746e-13
2.87408e-05
2.49158e-13
2.87408e-05
-1.76474e-13
2.87408e-05
-8.34148e-13
2.87408e-05
-1.90207e-12
2.87408e-05
-3.61655e-12
2.87408e-05
-6.30666e-12
2.87408e-05
-1.03347e-11
-1.06852e-11
3.12413e-05
7.29149e-12
3.12413e-05
9.07887e-12
3.12413e-05
6.89207e-12
3.12413e-05
4.84209e-12
3.12413e-05
3.30812e-12
3.12413e-05
2.30241e-12
3.12413e-05
1.70197e-12
3.12413e-05
1.34078e-12
3.12413e-05
1.09775e-12
3.12413e-05
9.0002e-13
3.12413e-05
7.03515e-13
3.12413e-05
4.74063e-13
3.12413e-05
1.71551e-13
3.12413e-05
-2.69286e-13
3.12413e-05
-9.62757e-13
3.12413e-05
-2.11465e-12
3.12413e-05
-4.01193e-12
3.12413e-05
-7.02902e-12
3.12413e-05
-1.17275e-11
-1.21466e-11
3.37419e-05
1.08418e-11
3.37419e-05
1.30006e-11
3.37419e-05
9.62981e-12
3.37419e-05
6.55109e-12
3.37419e-05
4.31069e-12
3.37419e-05
2.83174e-12
3.37419e-05
1.93744e-12
3.37419e-05
1.40438e-12
3.37419e-05
1.06789e-12
3.37419e-05
8.26003e-13
3.37419e-05
6.15432e-13
3.37419e-05
3.8997e-13
3.37419e-05
1.02314e-13
3.37419e-05
-3.1694e-13
3.37419e-05
-9.86136e-13
3.37419e-05
-2.11952e-12
3.37419e-05
-4.03252e-12
3.37419e-05
-7.12748e-12
3.37419e-05
-1.21877e-11
-1.27129e-11
3.62428e-05
1.29071e-11
3.62428e-05
1.51209e-11
3.62428e-05
1.08156e-11
3.62428e-05
7.12168e-12
3.62428e-05
4.55056e-12
3.62428e-05
2.87844e-12
3.62428e-05
1.87826e-12
3.62428e-05
1.29128e-12
3.62428e-05
9.33246e-13
3.62428e-05
6.91106e-13
3.62428e-05
4.95193e-13
3.62428e-05
2.96338e-13
3.62428e-05
4.76554e-14
3.62428e-05
-3.15747e-13
3.62428e-05
-9.03517e-13
3.62428e-05
-1.91777e-12
3.62428e-05
-3.67509e-12
3.62428e-05
-6.5796e-12
3.62428e-05
-1.16348e-11
-1.22941e-11
3.87439e-05
1.32083e-11
3.87439e-05
1.51006e-11
3.87439e-05
1.0262e-11
3.87439e-05
6.50142e-12
3.87439e-05
4.03417e-12
3.87439e-05
2.47118e-12
3.87439e-05
1.55623e-12
3.87439e-05
1.03038e-12
3.87439e-05
7.17848e-13
3.87439e-05
5.14536e-13
3.87439e-05
3.57287e-13
3.87439e-05
2.02736e-13
3.87439e-05
1.12086e-14
3.87439e-05
-2.70198e-13
3.87439e-05
-7.31124e-13
3.87439e-05
-1.54169e-12
3.87439e-05
-2.989e-12
3.87439e-05
-5.44027e-12
3.87439e-05
-1.00802e-11
-1.08812e-11
4.1245e-05
1.16066e-11
4.1245e-05
1.28247e-11
4.12451e-05
8.08017e-12
4.12451e-05
4.87715e-12
4.12451e-05
2.93547e-12
4.12451e-05
1.74146e-12
4.12451e-05
1.06431e-12
4.12451e-05
6.8487e-13
4.12451e-05
4.64617e-13
4.12451e-05
3.25272e-13
4.12451e-05
2.20547e-13
4.12451e-05
1.19211e-13
4.12451e-05
-6.64148e-15
4.12451e-05
-1.93153e-13
4.12451e-05
-5.02111e-13
4.12451e-05
-1.05602e-12
4.12451e-05
-2.08148e-12
4.12451e-05
-3.86047e-12
4.12451e-05
-7.65151e-12
-8.56298e-12
4.37464e-05
8.27347e-12
4.37464e-05
8.6209e-12
4.37464e-05
4.7991e-12
4.37464e-05
2.73057e-12
4.37464e-05
1.59308e-12
4.37464e-05
9.1246e-13
4.37464e-05
5.42211e-13
4.37464e-05
3.41599e-13
4.37464e-05
2.2763e-13
4.37464e-05
1.57125e-13
4.37464e-05
1.05019e-13
4.37464e-05
5.45474e-14
4.37464e-05
-9.26601e-15
4.37464e-05
-1.04955e-13
4.37464e-05
-2.64774e-13
4.37464e-05
-5.56628e-13
4.37464e-05
-1.12329e-12
4.37464e-05
-2.11301e-12
4.37464e-05
-4.66235e-12
-5.57757e-12
4.62478e-05
3.64703e-12
4.62478e-05
3.47812e-12
4.62478e-05
1.56265e-12
4.62478e-05
8.14017e-13
4.62478e-05
4.64896e-13
4.62478e-05
2.53406e-13
4.62478e-05
1.46056e-13
4.62478e-05
9.07756e-14
4.62478e-05
6.01125e-14
4.62478e-05
4.15408e-14
4.62478e-05
2.79769e-14
4.62478e-05
1.44495e-14
4.62478e-05
-3.75756e-15
4.62478e-05
-3.15534e-14
4.62478e-05
-7.7644e-14
4.62478e-05
-1.63291e-13
4.62478e-05
-3.42041e-13
4.62478e-05
-6.39378e-13
4.62478e-05
-1.70746e-12
-2.31014e-12
4.87492e-05
4.87493e-05
4.87493e-05
4.87493e-05
4.87493e-05
4.87493e-05
4.87493e-05
4.87493e-05
4.87493e-05
4.87493e-05
4.87493e-05
4.87493e-05
4.87493e-05
4.87493e-05
4.87493e-05
4.87493e-05
4.87493e-05
4.87493e-05
4.87493e-05
)
;

boundaryField
{
    top
    {
        type            calculated;
        value           uniform 0;
    }
    bottom
    {
        type            calculated;
        value           uniform 0;
    }
    inlet
    {
        type            calculated;
        value           nonuniform List<scalar> 
20
(
-1.24924e-06
-3.74777e-06
-6.24636e-06
-8.74504e-06
-1.12438e-05
-1.37428e-05
-1.62419e-05
-1.87413e-05
-2.12408e-05
-2.37406e-05
-2.62406e-05
-2.87408e-05
-3.12413e-05
-3.37419e-05
-3.62428e-05
-3.87439e-05
-4.1245e-05
-4.37464e-05
-4.62478e-05
-4.87492e-05
)
;
    }
    outlet
    {
        type            calculated;
        value           nonuniform List<scalar> 
20
(
1.24925e-06
3.74778e-06
6.24637e-06
8.74505e-06
1.12439e-05
1.37428e-05
1.62419e-05
1.87413e-05
2.12408e-05
2.37406e-05
2.62406e-05
2.87408e-05
3.12413e-05
3.37419e-05
3.62428e-05
3.87438e-05
4.1245e-05
4.37464e-05
4.62478e-05
4.87493e-05
)
;
    }
    frontAndBack
    {
        type            empty;
        value           nonuniform List<scalar> 0();
    }
}


// ************************************************************************* //
