/*--------------------------------*- C++ -*----------------------------------*\
  =========                 |
  \\      /  F ield         | OpenFOAM: The Open Source CFD Toolbox
   \\    /   O peration     | Website:  https://openfoam.org
    \\  /    A nd           | Version:  9
     \\/     M anipulation  |
\*---------------------------------------------------------------------------*/
FoamFile
{
    format      ascii;
    class       volVectorField;
    location    "1";
    object      U;
}
// * * * * * * * * * * * * * * * * * * * * * * * * * * * * * * * * * * * * * //

dimensions      [0 1 -1 0 0 0 0];

internalField   nonuniform List<vector> 
400
(
(0.0249849 -2.0824e-08 0)
(0.024985 -1.67262e-08 0)
(0.0249851 -6.99001e-09 0)
(0.0249851 -3.68448e-09 0)
(0.0249851 -1.99021e-09 0)
(0.0249851 -1.00781e-09 0)
(0.0249851 -4.97368e-10 0)
(0.0249851 -2.0285e-10 0)
(0.0249851 -4.55436e-11 0)
(0.0249851 2.32478e-11 0)
(0.0249851 5.0711e-11 0)
(0.0249851 6.47788e-11 0)
(0.0249851 7.98775e-11 0)
(0.0249851 1.12728e-10 0)
(0.0249851 2.00669e-10 0)
(0.0249851 4.6789e-10 0)
(0.0249851 1.11993e-09 0)
(0.0249851 2.63728e-09 0)
(0.0249851 9.27074e-09 0)
(0.024985 1.08943e-08 0)
(0.0749554 -7.16097e-08 0)
(0.0749556 -6.38381e-08 0)
(0.0749557 -3.31041e-08 0)
(0.0749557 -1.87608e-08 0)
(0.0749558 -1.05762e-08 0)
(0.0749558 -5.60354e-09 0)
(0.0749558 -2.80898e-09 0)
(0.0749558 -1.22234e-09 0)
(0.0749558 -3.52082e-10 0)
(0.0749558 8.49376e-11 0)
(0.0749558 2.88495e-10 0)
(0.0749558 3.87028e-10 0)
(0.0749558 4.72482e-10 0)
(0.0749558 6.52977e-10 0)
(0.0749558 1.12921e-09 0)
(0.0749558 2.40761e-09 0)
(0.0749558 5.38546e-09 0)
(0.0749558 1.17794e-08 0)
(0.0749557 3.17839e-08 0)
(0.0749557 3.49413e-08 0)
(0.124927 -1.30016e-07 0)
(0.124927 -1.26486e-07 0)
(0.124927 -7.58354e-08 0)
(0.124927 -4.52312e-08 0)
(0.124928 -2.62703e-08 0)
(0.124928 -1.43568e-08 0)
(0.124928 -7.33204e-09 0)
(0.124928 -3.25665e-09 0)
(0.124928 -9.85087e-10 0)
(0.124928 1.98668e-10 0)
(0.124928 7.7127e-10 0)
(0.124928 1.04818e-09 0)
(0.124928 1.27158e-09 0)
(0.124928 1.72e-09 0)
(0.124928 2.87173e-09 0)
(0.124928 5.7647e-09 0)
(0.124928 1.22443e-08 0)
(0.124928 2.5283e-08 0)
(0.124927 5.63734e-08 0)
(0.124927 5.80237e-08 0)
(0.174901 -1.78512e-07 0)
(0.174901 -1.82769e-07 0)
(0.174901 -1.19513e-07 0)
(0.174901 -7.40704e-08 0)
(0.174901 -4.40555e-08 0)
(0.174901 -2.45163e-08 0)
(0.174901 -1.26191e-08 0)
(0.174901 -5.61287e-09 0)
(0.174901 -1.66101e-09 0)
(0.174901 4.29129e-10 0)
(0.174901 1.44415e-09 0)
(0.174901 1.91516e-09 0)
(0.174901 2.25843e-09 0)
(0.174901 2.93548e-09 0)
(0.174901 4.69022e-09 0)
(0.174901 8.98718e-09 0)
(0.174901 1.83492e-08 0)
(0.174901 3.62474e-08 0)
(0.174901 7.23716e-08 0)
(0.174901 7.14235e-08 0)
(0.224877 -2.09929e-07 0)
(0.224877 -2.21339e-07 0)
(0.224877 -1.5327e-07 0)
(0.224877 -9.80114e-08 0)
(0.224877 -5.94534e-08 0)
(0.224877 -3.35196e-08 0)
(0.224877 -1.72982e-08 0)
(0.224877 -7.59359e-09 0)
(0.224877 -2.06911e-09 0)
(0.224877 8.62407e-10 0)
(0.224877 2.26578e-09 0)
(0.224877 2.86919e-09 0)
(0.224877 3.23823e-09 0)
(0.224877 3.96895e-09 0)
(0.224877 5.96492e-09 0)
(0.224877 1.0874e-08 0)
(0.224877 2.14292e-08 0)
(0.224877 4.07344e-08 0)
(0.224877 7.60343e-08 0)
(0.224877 7.29997e-08 0)
(0.274856 -2.22247e-07 0)
(0.274856 -2.38338e-07 0)
(0.274856 -1.71839e-07 0)
(0.274856 -1.12602e-07 0)
(0.274856 -6.93585e-08 0)
(0.274856 -3.94051e-08 0)
(0.274856 -2.02363e-08 0)
(0.274856 -8.60909e-09 0)
(0.274856 -1.94981e-09 0)
(0.274856 1.56918e-09 0)
(0.274856 3.20125e-09 0)
(0.274856 3.80966e-09 0)
(0.274856 4.05002e-09 0)
(0.274856 4.56997e-09 0)
(0.274856 6.28601e-09 0)
(0.274856 1.07596e-08 0)
(0.274856 2.04982e-08 0)
(0.274856 3.77443e-08 0)
(0.274856 6.75379e-08 0)
(0.274856 6.33539e-08 0)
(0.324839 -2.15863e-07 0)
(0.324838 -2.33595e-07 0)
(0.324839 -1.73319e-07 0)
(0.324839 -1.15623e-07 0)
(0.324839 -7.19571e-08 0)
(0.324839 -4.09335e-08 0)
(0.324839 -2.06894e-08 0)
(0.324839 -8.27051e-09 0)
(0.324839 -1.14084e-09 0)
(0.324839 2.57943e-09 0)
(0.324839 4.20842e-09 0)
(0.324839 4.65561e-09 0)
(0.324839 4.58814e-09 0)
(0.324839 4.60993e-09 0)
(0.324839 5.50357e-09 0)
(0.324839 8.50663e-09 0)
(0.324839 1.55887e-08 0)
(0.324839 2.7935e-08 0)
(0.324839 4.89225e-08 0)
(0.324839 4.44064e-08 0)
(0.374825 -1.92454e-07 0)
(0.374825 -2.08824e-07 0)
(0.374825 -1.58077e-07 0)
(0.374825 -1.06657e-07 0)
(0.374825 -6.66669e-08 0)
(0.374825 -3.76284e-08 0)
(0.374825 -1.83607e-08 0)
(0.374825 -6.43767e-09 0)
(0.374825 3.89763e-10 0)
(0.374825 3.86234e-09 0)
(0.374825 5.22708e-09 0)
(0.374825 5.34079e-09 0)
(0.374825 4.79947e-09 0)
(0.374825 4.07396e-09 0)
(0.374825 3.69e-09 0)
(0.374825 4.38725e-09 0)
(0.374825 7.39562e-09 0)
(0.374825 1.28514e-08 0)
(0.374825 2.28727e-08 0)
(0.374825 1.85552e-08 0)
(0.424816 -1.54937e-07 0)
(0.424816 -1.6731e-07 0)
(0.424816 -1.28287e-07 0)
(0.424816 -8.69094e-08 0)
(0.424816 -5.40996e-08 0)
(0.424816 -2.98069e-08 0)
(0.424816 -1.34399e-08 0)
(0.424816 -3.25046e-09 0)
(0.424816 2.52483e-09 0)
(0.424816 5.31755e-09 0)
(0.424816 6.17691e-09 0)
(0.424816 5.81434e-09 0)
(0.424816 4.68196e-09 0)
(0.424816 3.04799e-09 0)
(0.424816 1.09829e-09 0)
(0.424816 -1.02873e-09 0)
(0.424816 -2.94501e-09 0)
(0.424816 -5.47452e-09 0)
(0.424816 -7.53339e-09 0)
(0.424816 -1.14094e-08 0)
(0.474812 -1.07123e-07 0)
(0.474811 -1.13487e-07 0)
(0.474811 -8.75473e-08 0)
(0.474811 -5.89033e-08 0)
(0.474811 -3.59036e-08 0)
(0.474811 -1.85013e-08 0)
(0.474811 -6.56799e-09 0)
(0.474811 8.89336e-10 0)
(0.474811 5.00839e-09 0)
(0.474811 6.78213e-09 0)
(0.474811 6.96158e-09 0)
(0.474811 6.04061e-09 0)
(0.474811 4.2756e-09 0)
(0.474811 1.69215e-09 0)
(0.474811 -1.90053e-09 0)
(0.474811 -6.9963e-09 0)
(0.474811 -1.40766e-08 0)
(0.474811 -2.48073e-08 0)
(0.474811 -3.91395e-08 0)
(0.474811 -4.25884e-08 0)
(0.524812 -5.34723e-08 0)
(0.524811 -5.26068e-08 0)
(0.524811 -4.04605e-08 0)
(0.524811 -2.61385e-08 0)
(0.524811 -1.45078e-08 0)
(0.524811 -5.29446e-09 0)
(0.524811 1.26605e-09 0)
(0.524811 5.38017e-09 0)
(0.524811 7.4832e-09 0)
(0.524811 8.05221e-09 0)
(0.524811 7.47935e-09 0)
(0.524811 5.99956e-09 0)
(0.524811 3.65024e-09 0)
(0.524811 2.08069e-10 0)
(0.524811 -4.88362e-09 0)
(0.524811 -1.27167e-08 0)
(0.524811 -2.46066e-08 0)
(0.524811 -4.29509e-08 0)
(0.524811 -6.89086e-08 0)
(0.524811 -7.21366e-08 0)
(0.574816 1.18997e-09 0)
(0.574816 9.58025e-09 0)
(0.574816 7.74831e-09 0)
(0.574816 7.30028e-09 0)
(0.574816 7.19218e-09 0)
(0.574816 7.91167e-09 0)
(0.574816 8.87963e-09 0)
(0.574816 9.5195e-09 0)
(0.574816 9.55028e-09 0)
(0.574816 8.9168e-09 0)
(0.574816 7.63915e-09 0)
(0.574816 5.68888e-09 0)
(0.574816 2.89269e-09 0)
(0.574816 -1.19408e-09 0)
(0.574816 -7.43974e-09 0)
(0.574816 -1.74418e-08 0)
(0.574816 -3.3261e-08 0)
(0.574816 -5.79245e-08 0)
(0.574816 -9.40938e-08 0)
(0.574816 -9.7434e-08 0)
(0.624826 5.19102e-08 0)
(0.624825 6.7112e-08 0)
(0.624825 5.16345e-08 0)
(0.624825 3.71639e-08 0)
(0.624825 2.62066e-08 0)
(0.624825 1.91743e-08 0)
(0.624825 1.50894e-08 0)
(0.624825 1.26263e-08 0)
(0.624825 1.08429e-08 0)
(0.624825 9.19908e-09 0)
(0.624825 7.38011e-09 0)
(0.624825 5.12726e-09 0)
(0.624825 2.09498e-09 0)
(0.624825 -2.32561e-09 0)
(0.624825 -9.22387e-09 0)
(0.624825 -2.05621e-08 0)
(0.624825 -3.90044e-08 0)
(0.624825 -6.81028e-08 0)
(0.624825 -1.12357e-07 0)
(0.624825 -1.16205e-07 0)
(0.674839 9.39179e-08 0)
(0.674839 1.14153e-07 0)
(0.674839 8.59736e-08 0)
(0.674839 5.95256e-08 0)
(0.674839 3.98635e-08 0)
(0.674839 2.68222e-08 0)
(0.674839 1.89204e-08 0)
(0.674839 1.41733e-08 0)
(0.674839 1.11038e-08 0)
(0.674839 8.7981e-09 0)
(0.674839 6.69038e-09 0)
(0.674839 4.35749e-09 0)
(0.674839 1.34404e-09 0)
(0.674839 -3.0445e-09 0)
(0.674839 -1.00021e-08 0)
(0.674839 -2.16769e-08 0)
(0.674839 -4.11408e-08 0)
(0.674839 -7.23319e-08 0)
(0.674839 -1.21884e-07 0)
(0.674839 -1.26642e-07 0)
(0.724856 1.22857e-07 0)
(0.724856 1.45354e-07 0)
(0.724856 1.06318e-07 0)
(0.724856 7.13179e-08 0)
(0.724856 4.62575e-08 0)
(0.724856 2.97665e-08 0)
(0.724856 1.98078e-08 0)
(0.724856 1.39053e-08 0)
(0.724856 1.02511e-08 0)
(0.724856 7.72216e-09 0)
(0.724856 5.62081e-09 0)
(0.724856 3.44743e-09 0)
(0.724856 7.1282e-10 0)
(0.724856 -3.27475e-09 0)
(0.724856 -9.68496e-09 0)
(0.724856 -2.06482e-08 0)
(0.724856 -3.93949e-08 0)
(0.724856 -7.00408e-08 0)
(0.724856 -1.21493e-07 0)
(0.724856 -1.27508e-07 0)
(0.774877 1.35237e-07 0)
(0.774877 1.56373e-07 0)
(0.774877 1.096e-07 0)
(0.774877 7.09381e-08 0)
(0.774877 4.46684e-08 0)
(0.774877 2.7772e-08 0)
(0.774877 1.77492e-08 0)
(0.774877 1.19211e-08 0)
(0.774877 8.41712e-09 0)
(0.774877 6.10407e-09 0)
(0.774877 4.2878e-09 0)
(0.774877 2.48626e-09 0)
(0.774877 2.5222e-10 0)
(0.774877 -3.01878e-09 0)
(0.774877 -8.34725e-09 0)
(0.774877 -1.76362e-08 0)
(0.774877 -3.3977e-08 0)
(0.774877 -6.13376e-08 0)
(0.774877 -1.10761e-07 0)
(0.774877 -1.18259e-07 0)
(0.824901 1.28426e-07 0)
(0.824901 1.44284e-07 0)
(0.824901 9.49753e-08 0)
(0.824901 5.8807e-08 0)
(0.824901 3.59039e-08 0)
(0.824901 2.16102e-08 0)
(0.824901 1.33658e-08 0)
(0.824901 8.68629e-09 0)
(0.824901 5.94244e-09 0)
(0.824901 4.18949e-09 0)
(0.824901 2.86149e-09 0)
(0.824901 1.57467e-09 0)
(0.824901 -1.56343e-11 0)
(0.824901 -2.36108e-09 0)
(0.824901 -6.23109e-09 0)
(0.824901 -1.3112e-08 0)
(0.824901 -2.56269e-08 0)
(0.824901 -4.71266e-08 0)
(0.824901 -9.01127e-08 0)
(0.824901 -9.90523e-08 0)
(0.874927 1.02087e-07 0)
(0.874927 1.09674e-07 0)
(0.874927 6.53946e-08 0)
(0.874928 3.82642e-08 0)
(0.874928 2.26057e-08 0)
(0.874928 1.31457e-08 0)
(0.874928 7.89273e-09 0)
(0.874928 5.00072e-09 0)
(0.874928 3.34384e-09 0)
(0.874928 2.31118e-09 0)
(0.874928 1.54636e-09 0)
(0.874928 8.10244e-10 0)
(0.874928 -1.10166e-10 0)
(0.874928 -1.483e-09 0)
(0.874928 -3.76728e-09 0)
(0.874928 -7.90841e-09 0)
(0.874928 -1.57708e-08 0)
(0.874928 -2.95377e-08 0)
(0.874927 -6.16301e-08 0)
(0.874927 -7.12434e-08 0)
(0.924956 6.04102e-08 0)
(0.924956 6.05317e-08 0)
(0.924956 3.05786e-08 0)
(0.924956 1.6424e-08 0)
(0.924956 9.35296e-09 0)
(0.924956 5.19104e-09 0)
(0.924956 3.01184e-09 0)
(0.924956 1.86852e-09 0)
(0.924956 1.23157e-09 0)
(0.924956 8.44154e-10 0)
(0.924956 5.60463e-10 0)
(0.924956 2.82115e-10 0)
(0.924956 -7.96781e-11 0)
(0.924956 -6.29841e-10 0)
(0.924956 -1.55305e-09 0)
(0.924956 -3.26527e-09 0)
(0.924956 -6.7179e-09 0)
(0.924956 -1.27401e-08 0)
(0.924956 -3.08275e-08 0)
(0.924956 -3.88731e-08 0)
(0.974985 1.86173e-08 0)
(0.974985 1.72969e-08 0)
(0.974985 6.92635e-09 0)
(0.974985 3.24727e-09 0)
(0.974985 1.76819e-09 0)
(0.974985 9.08047e-10 0)
(0.974985 5.01051e-10 0)
(0.974985 3.04082e-10 0)
(0.974985 1.97746e-10 0)
(0.974985 1.34389e-10 0)
(0.974985 8.85656e-11 0)
(0.974985 4.07999e-11 0)
(0.974985 -2.90241e-11 0)
(0.974985 -1.39467e-10 0)
(0.974985 -3.17898e-10 0)
(0.974985 -6.55099e-10 0)
(0.974985 -1.41035e-09 0)
(0.974985 -2.67021e-09 0)
(0.974985 -8.03528e-09 0)
(0.974985 -1.12202e-08 0)
)
;

boundaryField
{
    top
    {
        type            fixedValue;
        value           uniform (1 0 0);
    }
    bottom
    {
        type            fixedValue;
        value           uniform (0 0 0);
    }
    inlet
    {
        type            zeroGradient;
    }
    outlet
    {
        type            zeroGradient;
    }
    frontAndBack
    {
        type            empty;
    }
}


// ************************************************************************* //
