/*--------------------------------*- C++ -*----------------------------------*\
  =========                 |
  \\      /  F ield         | OpenFOAM: The Open Source CFD Toolbox
   \\    /   O peration     | Website:  https://openfoam.org
    \\  /    A nd           | Version:  9
     \\/     M anipulation  |
\*---------------------------------------------------------------------------*/
FoamFile
{
    format      ascii;
    class       volScalarField;
    location    "5";
    object      p;
}
// * * * * * * * * * * * * * * * * * * * * * * * * * * * * * * * * * * * * * //

dimensions      [0 2 -2 0 0 0 0];

internalField   nonuniform List<scalar> 
400
(
3.65058e-12
6.05013e-12
5.85093e-12
5.56635e-12
5.09803e-12
4.543e-12
3.96454e-12
3.37596e-12
2.7872e-12
2.20323e-12
1.62126e-12
1.03742e-12
4.50607e-13
-1.39171e-13
-7.31224e-13
-1.32656e-12
-1.90981e-12
-2.43911e-12
-3.10804e-12
-1.96388e-12
3.46311e-12
5.7661e-12
5.54914e-12
5.3854e-12
4.9882e-12
4.47678e-12
3.92617e-12
3.3545e-12
2.77566e-12
2.19748e-12
1.61884e-12
1.03709e-12
4.5223e-13
-1.34603e-13
-7.20535e-13
-1.30344e-12
-1.86076e-12
-2.32663e-12
-3.03484e-12
-1.91391e-12
3.50097e-12
5.7906e-12
5.37876e-12
5.2679e-12
4.90929e-12
4.42467e-12
3.89402e-12
3.33542e-12
2.76463e-12
2.19127e-12
1.61552e-12
1.03583e-12
4.52814e-13
-1.31576e-13
-7.13154e-13
-1.28885e-12
-1.83553e-12
-2.27141e-12
-3.1323e-12
-1.98416e-12
3.63515e-12
6.04268e-12
5.34279e-12
5.21829e-12
4.86667e-12
4.39091e-12
3.87073e-12
3.32015e-12
2.75471e-12
2.18478e-12
1.61137e-12
1.03346e-12
4.51856e-13
-1.30862e-13
-7.105e-13
-1.28521e-12
-1.83558e-12
-2.27529e-12
-3.32986e-12
-2.09317e-12
3.78244e-12
6.39233e-12
5.37648e-12
5.20707e-12
4.84592e-12
4.36853e-12
3.85301e-12
3.30701e-12
2.74505e-12
2.17779e-12
1.60652e-12
1.03019e-12
4.49677e-13
-1.3221e-13
-7.11654e-13
-1.28905e-12
-1.8509e-12
-2.30767e-12
-3.5509e-12
-2.19671e-12
3.91838e-12
6.7701e-12
5.44449e-12
5.21652e-12
4.83812e-12
4.35308e-12
3.83838e-12
3.29499e-12
2.73556e-12
2.17045e-12
1.60102e-12
1.02619e-12
4.46466e-13
-1.35143e-13
-7.15378e-13
-1.29725e-12
-1.87344e-12
-2.34991e-12
-3.75367e-12
-2.28089e-12
4.03831e-12
7.13777e-12
5.52704e-12
5.23586e-12
4.83726e-12
4.34136e-12
3.82531e-12
3.28329e-12
2.72607e-12
2.16287e-12
1.59511e-12
1.02158e-12
4.4257e-13
-1.39008e-13
-7.20603e-13
-1.30713e-12
-1.89729e-12
-2.39084e-12
-3.91691e-12
-2.34338e-12
4.13739e-12
7.46412e-12
5.60757e-12
5.25606e-12
4.8379e-12
4.33081e-12
3.81257e-12
3.27139e-12
2.71638e-12
2.15513e-12
1.58892e-12
1.01669e-12
4.38407e-13
-1.43203e-13
-7.25941e-13
-1.31574e-12
-1.91757e-12
-2.42231e-12
-4.02595e-12
-2.38186e-12
4.21281e-12
7.72451e-12
5.67346e-12
5.26939e-12
4.83594e-12
4.31903e-12
3.79891e-12
3.25931e-12
2.7063e-12
2.14729e-12
1.58285e-12
1.01174e-12
4.34266e-13
-1.4693e-13
-7.2998e-13
-1.32131e-12
-1.92981e-12
-2.43798e-12
-4.07219e-12
-2.39567e-12
4.26232e-12
7.90126e-12
5.71538e-12
5.27156e-12
4.82865e-12
4.30523e-12
3.78457e-12
3.24691e-12
2.6961e-12
2.13955e-12
1.57718e-12
1.00724e-12
4.30636e-13
-1.49721e-13
-7.31662e-13
-1.32185e-12
-1.93114e-12
-2.43402e-12
-4.05244e-12
-2.38478e-12
4.28412e-12
7.98257e-12
5.72861e-12
5.26072e-12
4.81531e-12
4.28955e-12
3.7698e-12
3.23441e-12
2.68629e-12
2.1322e-12
1.57176e-12
1.00356e-12
4.28149e-13
-1.51086e-13
-7.30541e-13
-1.31628e-12
-1.92033e-12
-2.4095e-12
-3.96859e-12
-2.35044e-12
4.2765e-12
7.96296e-12
5.71196e-12
5.23804e-12
4.79698e-12
4.27305e-12
3.75537e-12
3.22293e-12
2.67743e-12
2.12541e-12
1.56716e-12
1.00041e-12
4.26568e-13
-1.50553e-13
-7.26588e-13
-1.30435e-12
-1.89778e-12
-2.36578e-12
-3.82589e-12
-2.29415e-12
4.23891e-12
7.84308e-12
5.66848e-12
5.20645e-12
4.77638e-12
4.25809e-12
3.74286e-12
3.21317e-12
2.67016e-12
2.1197e-12
1.56326e-12
9.97906e-13
4.26162e-13
-1.48213e-13
-7.19426e-13
-1.28785e-12
-1.86515e-12
-2.30643e-12
-3.6333e-12
-2.21814e-12
4.1706e-12
7.6306e-12
5.60565e-12
5.17137e-12
4.75727e-12
4.24667e-12
3.73409e-12
3.20613e-12
2.66488e-12
2.11565e-12
1.56018e-12
9.96409e-13
4.27045e-13
-1.44763e-13
-7.10824e-13
-1.26803e-12
-1.82556e-12
-2.23641e-12
-3.40369e-12
-2.12584e-12
4.07155e-12
7.34191e-12
5.53532e-12
5.14151e-12
4.74418e-12
4.24144e-12
3.73049e-12
3.20277e-12
2.66179e-12
2.11354e-12
1.55838e-12
9.95838e-13
4.27945e-13
-1.40912e-13
-7.01859e-13
-1.24807e-12
-1.78418e-12
-2.1635e-12
-3.15292e-12
-2.02079e-12
3.94458e-12
7.00291e-12
5.47308e-12
5.12553e-12
4.74264e-12
4.24513e-12
3.73316e-12
3.20417e-12
2.66171e-12
2.11292e-12
1.55783e-12
9.9538e-13
4.28444e-13
-1.37813e-13
-6.93888e-13
-1.23113e-12
-1.747e-12
-2.09678e-12
-2.90016e-12
-1.90816e-12
3.79194e-12
6.6487e-12
5.4391e-12
5.13306e-12
4.7566e-12
4.25937e-12
3.74247e-12
3.20933e-12
2.66472e-12
2.11436e-12
1.55793e-12
9.95291e-13
4.28862e-13
-1.36169e-13
-6.89578e-13
-1.221e-12
-1.72034e-12
-2.04744e-12
-2.66839e-12
-1.79353e-12
3.6363e-12
6.35024e-12
5.46839e-12
5.1785e-12
4.79188e-12
4.28662e-12
3.75926e-12
3.21891e-12
2.67e-12
2.1174e-12
1.55909e-12
9.95492e-13
4.28251e-13
-1.37776e-13
-6.91512e-13
-1.22173e-12
-1.71311e-12
-2.03326e-12
-2.49603e-12
-1.69274e-12
3.54828e-12
6.2381e-12
5.62537e-12
5.28623e-12
4.85883e-12
4.33003e-12
3.78491e-12
3.23373e-12
2.6784e-12
2.12163e-12
1.56097e-12
9.9545e-13
4.26116e-13
-1.42605e-13
-7.01465e-13
-1.23883e-12
-1.73811e-12
-2.08228e-12
-2.45058e-12
-1.65302e-12
3.65717e-12
6.42558e-12
5.90646e-12
5.45006e-12
4.95155e-12
4.38481e-12
3.81567e-12
3.25132e-12
2.68881e-12
2.12718e-12
1.56329e-12
9.95033e-13
4.22662e-13
-1.50649e-13
-7.18132e-13
-1.27015e-12
-1.7927e-12
-2.19272e-12
-2.57033e-12
-1.74449e-12
)
;

boundaryField
{
    top
    {
        type            zeroGradient;
    }
    bottom
    {
        type            zeroGradient;
    }
    inlet
    {
        type            fixedValue;
        value           uniform 0;
    }
    outlet
    {
        type            fixedValue;
        value           uniform 0;
    }
    frontAndBack
    {
        type            empty;
    }
}


// ************************************************************************* //
