/*--------------------------------*- C++ -*----------------------------------*\
  =========                 |
  \\      /  F ield         | OpenFOAM: The Open Source CFD Toolbox
   \\    /   O peration     | Website:  https://openfoam.org
    \\  /    A nd           | Version:  9
     \\/     M anipulation  |
\*---------------------------------------------------------------------------*/
FoamFile
{
    format      ascii;
    class       surfaceScalarField;
    location    "5";
    object      phi;
}
// * * * * * * * * * * * * * * * * * * * * * * * * * * * * * * * * * * * * * //

dimensions      [0 3 -1 0 0 0 0];

internalField   nonuniform List<scalar> 
760
(
1.25e-06
-2.23593e-17
1.25e-06
-1.86062e-17
1.25e-06
-8.86289e-18
1.25e-06
-5.04188e-18
1.25e-06
-2.89444e-18
1.25e-06
-1.5911e-18
1.25e-06
-8.70811e-19
1.25e-06
-4.55858e-19
1.25e-06
-2.21981e-19
1.25e-06
-1.01765e-19
1.25e-06
-3.88465e-20
1.25e-06
1.06136e-21
1.25e-06
3.62553e-20
1.25e-06
9.34689e-20
1.25e-06
2.23746e-19
1.25e-06
5.66318e-19
1.25e-06
1.3519e-18
1.25e-06
3.02208e-18
1.25e-06
9.5238e-18
1.09934e-17
3.75e-06
-5.38295e-17
3.75e-06
-5.04429e-17
3.75e-06
-2.88425e-17
3.75e-06
-1.71669e-17
3.75e-06
-1.01313e-17
3.75e-06
-5.76424e-18
3.75e-06
-3.21819e-18
3.75e-06
-1.73156e-18
3.75e-06
-8.80078e-19
3.75e-06
-4.11812e-19
3.75e-06
-1.53983e-19
3.75e-06
1.16124e-21
3.75e-06
1.34994e-19
3.75e-06
3.44998e-19
3.75e-06
8.08365e-19
3.75e-06
1.92302e-18
3.75e-06
4.41432e-18
3.75e-06
9.48107e-18
3.75e-06
2.31125e-17
2.44273e-17
6.25e-06
-8.18719e-17
6.25e-06
-8.21408e-17
6.25e-06
-5.22178e-17
6.25e-06
-3.23376e-17
6.25e-06
-1.9597e-17
6.25e-06
-1.14198e-17
6.25e-06
-6.47879e-18
6.25e-06
-3.54196e-18
6.25e-06
-1.83599e-18
6.25e-06
-8.74749e-19
6.25e-06
-3.39629e-19
6.25e-06
-2.00498e-20
6.25e-06
2.45435e-19
6.25e-06
6.38854e-19
6.25e-06
1.48629e-18
6.25e-06
3.44201e-18
6.25e-06
7.64914e-18
6.25e-06
1.58292e-17
6.25e-06
3.35353e-17
3.35638e-17
8.75e-06
-1.02873e-16
8.75e-06
-1.07145e-16
8.75e-06
-7.29344e-17
8.75e-06
-4.68013e-17
8.75e-06
-2.90483e-17
8.75e-06
-1.72626e-17
8.75e-06
-9.93017e-18
8.75e-06
-5.49257e-18
8.75e-06
-2.88082e-18
8.75e-06
-1.39209e-18
8.75e-06
-5.61073e-19
8.75e-06
-7.41808e-20
8.75e-06
3.06103e-19
8.75e-06
8.42858e-19
8.75e-06
1.96515e-18
8.75e-06
4.48943e-18
8.75e-06
9.78769e-18
8.75e-06
1.95798e-17
8.75e-06
3.83e-17
3.71475e-17
1.125e-05
-1.14681e-16
1.125e-05
-1.22111e-16
1.125e-05
-8.72521e-17
1.125e-05
-5.7663e-17
1.125e-05
-3.6549e-17
1.125e-05
-2.20866e-17
1.125e-05
-1.2854e-17
1.125e-05
-7.17431e-18
1.125e-05
-3.79471e-18
1.125e-05
-1.85179e-18
1.125e-05
-7.68578e-19
1.125e-05
-1.57636e-19
1.125e-05
2.79612e-19
1.125e-05
8.47481e-19
1.125e-05
2.01831e-18
1.125e-05
4.63835e-18
1.125e-05
1.00699e-17
1.125e-05
1.97091e-17
1.125e-05
3.67666e-17
3.48517e-17
1.375e-05
-1.16731e-16
1.375e-05
-1.25902e-16
1.375e-05
-9.32117e-17
1.375e-05
-6.30919e-17
1.375e-05
-4.07144e-17
1.375e-05
-2.49501e-17
1.375e-05
-1.46613e-17
1.375e-05
-8.23026e-18
1.375e-05
-4.37171e-18
1.375e-05
-2.14352e-18
1.375e-05
-9.13535e-19
1.375e-05
-2.55241e-19
1.375e-05
1.45586e-19
1.375e-05
5.96732e-19
1.375e-05
1.54094e-18
1.375e-05
3.71286e-18
1.375e-05
8.28048e-18
1.375e-05
1.61476e-17
1.375e-05
2.95227e-17
2.72975e-17
1.625e-05
-1.09406e-16
1.625e-05
-1.18746e-16
1.625e-05
-9.02778e-17
1.625e-05
-6.22883e-17
1.625e-05
-4.08081e-17
1.625e-05
-2.5303e-17
1.625e-05
-1.49778e-17
1.625e-05
-8.43001e-18
1.625e-05
-4.47114e-18
1.625e-05
-2.18655e-18
1.625e-05
-9.5216e-19
1.625e-05
-3.49352e-19
1.625e-05
-8.80475e-20
1.625e-05
9.82322e-20
1.625e-05
5.44248e-19
1.625e-05
1.76909e-18
1.625e-05
4.63208e-18
1.625e-05
9.47185e-18
1.625e-05
1.77383e-17
1.55417e-17
1.875e-05
-9.38959e-17
1.875e-05
-1.01899e-16
1.875e-05
-7.90562e-17
1.875e-05
-5.53699e-17
1.875e-05
-3.67563e-17
1.875e-05
-2.30082e-17
1.875e-05
-1.3683e-17
1.875e-05
-7.69613e-18
1.875e-05
-4.03872e-18
1.875e-05
-1.94822e-18
1.875e-05
-8.6366e-19
1.875e-05
-4.17972e-19
1.875e-05
-3.88316e-19
1.875e-05
-5.95472e-19
1.875e-05
-8.55263e-19
1.875e-05
-9.29797e-19
1.875e-05
-3.85764e-19
1.875e-05
6.17976e-19
1.875e-05
2.92005e-18
9.49206e-19
2.125e-05
-7.19181e-17
2.125e-05
-7.7343e-17
2.125e-05
-6.09987e-17
2.125e-05
-4.32688e-17
2.125e-05
-2.90838e-17
2.125e-05
-1.8367e-17
2.125e-05
-1.09462e-17
2.125e-05
-6.10233e-18
2.125e-05
-3.12317e-18
2.125e-05
-1.44719e-18
2.125e-05
-6.48217e-19
2.125e-05
-4.48995e-19
2.125e-05
-7.1559e-19
2.125e-05
-1.38557e-18
2.125e-05
-2.46764e-18
2.125e-05
-4.0343e-18
2.125e-05
-6.09998e-18
2.125e-05
-9.28926e-18
2.125e-05
-1.33006e-17
-1.50037e-17
2.375e-05
-4.56108e-17
2.375e-05
-4.75728e-17
2.375e-05
-3.82245e-17
2.375e-05
-2.75204e-17
2.375e-05
-1.88282e-17
2.375e-05
-1.2027e-17
2.375e-05
-7.1503e-18
2.375e-05
-3.87984e-18
2.375e-05
-1.85641e-18
2.375e-05
-7.55799e-19
2.375e-05
-3.26744e-19
2.375e-05
-4.33911e-19
2.375e-05
-1.02577e-18
2.375e-05
-2.16237e-18
2.375e-05
-4.0653e-18
2.375e-05
-7.12467e-18
2.375e-05
-1.17793e-17
2.375e-05
-1.90797e-17
2.375e-05
-2.92986e-17
-3.08108e-17
2.625e-05
-1.73805e-17
2.625e-05
-1.54483e-17
2.625e-05
-1.32801e-17
2.625e-05
-1.01035e-17
2.625e-05
-7.37672e-18
2.625e-05
-4.89402e-18
2.625e-05
-2.86157e-18
2.625e-05
-1.37951e-18
2.625e-05
-4.37225e-19
2.625e-05
1.81462e-20
2.625e-05
3.43281e-20
2.625e-05
-3.68491e-19
2.625e-05
-1.26195e-18
2.625e-05
-2.82082e-18
2.625e-05
-5.4286e-18
2.625e-05
-9.79489e-18
2.625e-05
-1.67269e-17
2.625e-05
-2.76621e-17
2.625e-05
-4.35782e-17
-4.50561e-17
2.875e-05
1.02123e-17
2.875e-05
1.59792e-17
2.875e-05
1.10431e-17
2.875e-05
6.80681e-18
2.875e-05
3.70761e-18
2.875e-05
1.9883e-18
2.875e-05
1.26318e-18
2.875e-05
1.01428e-18
2.875e-05
9.06541e-19
2.875e-05
7.41076e-19
2.875e-05
3.83359e-19
2.875e-05
-2.75274e-19
2.875e-05
-1.40353e-18
2.875e-05
-3.26374e-18
2.875e-05
-6.38518e-18
2.875e-05
-1.16786e-17
2.875e-05
-2.03513e-17
2.875e-05
-3.41054e-17
2.875e-05
-5.48171e-17
-5.64635e-17
3.125e-05
3.46389e-17
3.125e-05
4.36287e-17
3.125e-05
3.19363e-17
3.125e-05
2.10359e-17
3.125e-05
1.29047e-17
3.125e-05
7.63472e-18
3.125e-05
4.60017e-18
3.125e-05
2.92617e-18
3.125e-05
1.96037e-18
3.125e-05
1.28995e-18
3.125e-05
6.51389e-19
3.125e-05
-1.81315e-19
3.125e-05
-1.434e-18
3.125e-05
-3.42074e-18
3.125e-05
-6.77559e-18
3.125e-05
-1.25567e-17
3.125e-05
-2.22168e-17
3.125e-05
-3.77066e-17
3.125e-05
-6.19364e-17
-6.39706e-17
3.375e-05
5.35197e-17
3.375e-05
6.45543e-17
3.375e-05
4.68352e-17
3.375e-05
3.06809e-17
3.375e-05
1.89509e-17
3.375e-05
1.12477e-17
3.375e-05
6.67546e-18
3.375e-05
4.07341e-18
3.375e-05
2.56869e-18
3.375e-05
1.57968e-18
3.375e-05
7.89269e-19
3.375e-05
-9.99966e-20
3.375e-05
-1.33271e-18
3.375e-05
-3.27938e-18
3.375e-05
-6.56427e-18
3.375e-05
-1.22917e-17
3.375e-05
-2.20783e-17
3.375e-05
-3.80173e-17
3.375e-05
-6.41731e-17
-6.68023e-17
3.625e-05
6.47552e-17
3.625e-05
7.61957e-17
3.625e-05
5.37404e-17
3.625e-05
3.44793e-17
3.625e-05
2.10699e-17
3.625e-05
1.23858e-17
3.625e-05
7.25433e-18
3.625e-05
4.32412e-18
3.625e-05
2.65046e-18
3.625e-05
1.59211e-18
3.625e-05
7.8518e-19
3.625e-05
-3.30857e-20
3.625e-05
-1.13033e-18
3.625e-05
-2.85694e-18
3.625e-05
-5.78684e-18
3.625e-05
-1.09294e-17
3.625e-05
-1.9945e-17
3.625e-05
-3.49415e-17
3.625e-05
-6.1127e-17
-6.44973e-17
3.875e-05
6.6864e-17
3.875e-05
7.67523e-17
3.875e-05
5.16151e-17
3.875e-05
3.20625e-17
3.875e-05
1.9233e-17
3.875e-05
1.11201e-17
3.875e-05
6.41681e-18
3.875e-05
3.77628e-18
3.875e-05
2.2653e-18
3.875e-05
1.3393e-18
3.875e-05
6.62919e-19
3.875e-05
-4.27171e-21
3.875e-05
-8.72838e-19
3.875e-05
-2.22506e-18
3.875e-05
-4.54026e-18
3.875e-05
-8.66366e-18
3.875e-05
-1.61094e-17
3.875e-05
-2.87858e-17
3.875e-05
-5.28637e-17
-5.70137e-17
4.125e-05
5.9084e-17
4.125e-05
6.55513e-17
4.125e-05
4.0957e-17
4.125e-05
2.43415e-17
4.125e-05
1.42533e-17
4.125e-05
8.04938e-18
4.125e-05
4.56808e-18
4.125e-05
2.65794e-18
4.125e-05
1.58612e-18
4.125e-05
9.26577e-19
4.125e-05
4.5348e-19
4.125e-05
-7.38002e-22
4.125e-05
-5.77124e-19
4.125e-05
-1.47651e-18
4.125e-05
-3.03632e-18
4.125e-05
-5.86952e-18
4.125e-05
-1.11581e-17
4.125e-05
-2.03629e-17
4.125e-05
-4.00643e-17
-4.48163e-17
4.375e-05
4.22833e-17
4.375e-05
4.42523e-17
4.375e-05
2.44415e-17
4.375e-05
1.37405e-17
4.375e-05
7.82856e-18
4.375e-05
4.2918e-18
4.375e-05
2.3833e-18
4.375e-05
1.36993e-18
4.375e-05
8.18159e-19
4.375e-05
4.88002e-19
4.375e-05
2.36643e-19
4.375e-05
1.7959e-21
4.375e-05
-2.96475e-19
4.375e-05
-7.69064e-19
4.375e-05
-1.57061e-18
4.375e-05
-3.06503e-18
4.375e-05
-5.98691e-18
4.375e-05
-1.11168e-17
4.375e-05
-2.43695e-17
-2.91692e-17
4.625e-05
1.86876e-17
4.625e-05
1.79051e-17
4.625e-05
7.98324e-18
4.625e-05
4.13194e-18
4.625e-05
2.30382e-18
4.625e-05
1.20075e-18
4.625e-05
6.51812e-19
4.625e-05
3.72664e-19
4.625e-05
2.19938e-19
4.625e-05
1.36938e-19
4.625e-05
7.03596e-20
4.625e-05
5.12066e-21
4.625e-05
-8.38278e-20
4.625e-05
-2.24004e-19
4.625e-05
-4.4931e-19
4.625e-05
-8.84424e-19
4.625e-05
-1.81707e-18
4.625e-05
-3.34926e-18
4.625e-05
-8.91349e-18
-1.20739e-17
4.875e-05
4.875e-05
4.875e-05
4.875e-05
4.875e-05
4.875e-05
4.875e-05
4.875e-05
4.875e-05
4.875e-05
4.875e-05
4.875e-05
4.875e-05
4.875e-05
4.875e-05
4.875e-05
4.875e-05
4.875e-05
4.875e-05
)
;

boundaryField
{
    top
    {
        type            calculated;
        value           uniform 0;
    }
    bottom
    {
        type            calculated;
        value           uniform 0;
    }
    inlet
    {
        type            calculated;
        value           nonuniform List<scalar> 
20
(
-1.25e-06
-3.75e-06
-6.25e-06
-8.75e-06
-1.125e-05
-1.375e-05
-1.625e-05
-1.875e-05
-2.125e-05
-2.375e-05
-2.625e-05
-2.875e-05
-3.125e-05
-3.375e-05
-3.625e-05
-3.875e-05
-4.125e-05
-4.375e-05
-4.625e-05
-4.875e-05
)
;
    }
    outlet
    {
        type            calculated;
        value           nonuniform List<scalar> 
20
(
1.25e-06
3.75e-06
6.25e-06
8.75e-06
1.125e-05
1.375e-05
1.625e-05
1.875e-05
2.125e-05
2.375e-05
2.625e-05
2.875e-05
3.125e-05
3.375e-05
3.625e-05
3.875e-05
4.125e-05
4.375e-05
4.625e-05
4.875e-05
)
;
    }
    frontAndBack
    {
        type            empty;
        value           nonuniform List<scalar> 0();
    }
}


// ************************************************************************* //
