/*--------------------------------*- C++ -*----------------------------------*\
  =========                 |
  \\      /  F ield         | OpenFOAM: The Open Source CFD Toolbox
   \\    /   O peration     | Website:  https://openfoam.org
    \\  /    A nd           | Version:  9
     \\/     M anipulation  |
\*---------------------------------------------------------------------------*/
FoamFile
{
    format      ascii;
    class       volVectorField;
    location    "5";
    object      U;
}
// * * * * * * * * * * * * * * * * * * * * * * * * * * * * * * * * * * * * * //

dimensions      [0 1 -1 0 0 0 0];

internalField   nonuniform List<vector> 
400
(
(0.025 -1.09567e-13 0)
(0.025 -8.77837e-14 0)
(0.025 -3.70371e-14 0)
(0.025 -1.97495e-14 0)
(0.025 -1.08936e-14 0)
(0.025 -5.77545e-15 0)
(0.025 -3.10654e-15 0)
(0.025 -1.5536e-15 0)
(0.025 -6.97097e-16 0)
(0.025 -2.99401e-16 0)
(0.025 -1.10875e-16 0)
(0.025 1.78335e-17 0)
(0.025 1.42678e-16 0)
(0.025 3.57279e-16 0)
(0.025 8.64383e-16 0)
(0.025 2.30037e-15 0)
(0.025 5.74988e-15 0)
(0.025 1.37075e-14 0)
(0.025 4.81117e-14 0)
(0.025 5.63511e-14 0)
(0.075 -3.76937e-13 0)
(0.075 -3.35259e-13 0)
(0.075 -1.75167e-13 0)
(0.075 -1.00553e-13 0)
(0.075 -5.80713e-14 0)
(0.075 -3.22836e-14 0)
(0.075 -1.77335e-14 0)
(0.075 -9.37222e-15 0)
(0.075 -4.63899e-15 0)
(0.075 -2.11314e-15 0)
(0.075 -7.55259e-16 0)
(0.075 7.02748e-17 0)
(0.075 8.02832e-16 0)
(0.075 1.9981e-15 0)
(0.075 4.71785e-15 0)
(0.075 1.15569e-14 0)
(0.075 2.72139e-14 0)
(0.075 6.05792e-14 0)
(0.075 1.64409e-13 0)
(0.075 1.80426e-13 0)
(0.125 -6.85239e-13 0)
(0.125 -6.65485e-13 0)
(0.125 -4.01983e-13 0)
(0.125 -2.43234e-13 0)
(0.125 -1.45095e-13 0)
(0.125 -8.34258e-14 0)
(0.125 -4.6895e-14 0)
(0.125 -2.53999e-14 0)
(0.125 -1.30226e-14 0)
(0.125 -6.14157e-15 0)
(0.125 -2.33178e-15 0)
(0.125 -2.867e-17 0)
(0.125 1.94695e-15 0)
(0.125 4.97855e-15 0)
(0.125 1.15928e-14 0)
(0.125 2.71461e-14 0)
(0.125 6.12213e-14 0)
(0.125 1.29226e-13 0)
(0.125 2.90767e-13 0)
(0.125 2.99072e-13 0)
(0.175 -9.42858e-13 0)
(0.175 -9.64294e-13 0)
(0.175 -6.35883e-13 0)
(0.175 -4.00555e-13 0)
(0.175 -2.45397e-13 0)
(0.175 -1.44275e-13 0)
(0.175 -8.23487e-14 0)
(0.175 -4.52728e-14 0)
(0.175 -2.36134e-14 0)
(0.175 -1.13322e-14 0)
(0.175 -4.47378e-15 0)
(0.175 -3.95623e-16 0)
(0.175 2.92962e-15 0)
(0.175 7.77561e-15 0)
(0.175 1.80411e-14 0)
(0.175 4.13451e-14 0)
(0.175 9.07552e-14 0)
(0.175 1.84293e-13 0)
(0.175 3.72259e-13 0)
(0.175 3.67312e-13 0)
(0.225 -1.11184e-12 0)
(0.225 -1.17164e-12 0)
(0.225 -8.19262e-13 0)
(0.225 -5.33696e-13 0)
(0.225 -3.34673e-13 0)
(0.225 -2.00526e-13 0)
(0.225 -1.16007e-13 0)
(0.225 -6.44754e-14 0)
(0.225 -3.39911e-14 0)
(0.225 -1.65244e-14 0)
(0.225 -6.75404e-15 0)
(0.225 -1.10539e-15 0)
(0.225 3.17463e-15 0)
(0.225 9.03136e-15 0)
(0.225 2.11384e-14 0)
(0.225 4.81323e-14 0)
(0.225 1.04191e-13 0)
(0.225 2.05434e-13 0)
(0.225 3.89547e-13 0)
(0.225 3.74111e-13 0)
(0.275 -1.18125e-12 0)
(0.275 -1.26674e-12 0)
(0.275 -9.2379e-13 0)
(0.275 -6.18484e-13 0)
(0.275 -3.95705e-13 0)
(0.275 -2.40888e-13 0)
(0.275 -1.4092e-13 0)
(0.275 -7.8929e-14 0)
(0.275 -4.18879e-14 0)
(0.275 -2.05235e-14 0)
(0.275 -8.64073e-15 0)
(0.275 -2.05885e-15 0)
(0.275 2.38253e-15 0)
(0.275 7.85404e-15 0)
(0.275 1.91175e-14 0)
(0.275 4.43653e-14 0)
(0.275 9.66169e-14 0)
(0.275 1.87624e-13 0)
(0.275 3.43658e-13 0)
(0.275 3.22669e-13 0)
(0.325 -1.15282e-12 0)
(0.325 -1.24815e-12 0)
(0.325 -9.38789e-13 0)
(0.325 -6.42445e-13 0)
(0.325 -4.18039e-13 0)
(0.325 -2.57854e-13 0)
(0.325 -1.5218e-13 0)
(0.325 -8.56281e-14 0)
(0.325 -4.55258e-14 0)
(0.325 -2.23478e-14 0)
(0.325 -9.64698e-15 0)
(0.325 -3.07654e-15 0)
(0.325 4.88499e-16 0)
(0.325 4.02099e-15 0)
(0.325 1.15638e-14 0)
(0.325 2.95979e-14 0)
(0.325 6.85001e-14 0)
(0.325 1.34508e-13 0)
(0.325 2.45324e-13 0)
(0.325 2.23037e-13 0)
(0.375 -1.03498e-12 0)
(0.375 -1.1243e-12 0)
(0.375 -8.65492e-13 0)
(0.375 -6.02551e-13 0)
(0.375 -3.97706e-13 0)
(0.375 -2.47969e-13 0)
(0.375 -1.47258e-13 0)
(0.375 -8.29705e-14 0)
(0.375 -4.38784e-14 0)
(0.375 -2.1398e-14 0)
(0.375 -9.42945e-15 0)
(0.375 -3.93621e-15 0)
(0.375 -2.28074e-15 0)
(0.375 -2.1388e-15 0)
(0.375 -8.18439e-16 0)
(0.375 5.60176e-15 0)
(0.375 2.3695e-14 0)
(0.375 5.42992e-14 0)
(0.375 1.08578e-13 0)
(0.375 8.77278e-14 0)
(0.425 -8.42669e-13 0)
(0.425 -9.11903e-13 0)
(0.425 -7.14704e-13 0)
(0.425 -5.0441e-13 0)
(0.425 -3.37144e-13 0)
(0.425 -2.12114e-13 0)
(0.425 -1.26419e-13 0)
(0.425 -7.09395e-14 0)
(0.425 -3.69248e-14 0)
(0.425 -1.75836e-14 0)
(0.425 -7.87113e-15 0)
(0.425 -4.46887e-15 0)
(0.425 -5.53562e-15 0)
(0.425 -9.82038e-15 0)
(0.425 -1.6396e-14 0)
(0.425 -2.43982e-14 0)
(0.425 -3.16983e-14 0)
(0.425 -4.23205e-14 0)
(0.425 -5.04948e-14 0)
(0.425 -6.87359e-14 0)
(0.475 -5.95486e-13 0)
(0.475 -6.33776e-13 0)
(0.475 -5.04792e-13 0)
(0.475 -3.60781e-13 0)
(0.475 -2.44465e-13 0)
(0.475 -1.5524e-13 0)
(0.475 -9.25345e-14 0)
(0.475 -5.11331e-14 0)
(0.475 -2.55858e-14 0)
(0.475 -1.13875e-14 0)
(0.475 -5.07985e-15 0)
(0.475 -4.54864e-15 0)
(0.475 -8.83528e-15 0)
(0.475 -1.79337e-14 0)
(0.475 -3.30005e-14 0)
(0.475 -5.63927e-14 0)
(0.475 -9.04219e-14 0)
(0.475 -1.43565e-13 0)
(0.475 -2.15332e-13 0)
(0.475 -2.31202e-13 0)
(0.525 -3.16531e-13 0)
(0.525 -3.17127e-13 0)
(0.525 -2.59583e-13 0)
(0.525 -1.89747e-13 0)
(0.525 -1.32204e-13 0)
(0.525 -8.54034e-14 0)
(0.525 -5.05493e-14 0)
(0.525 -2.65703e-14 0)
(0.525 -1.16004e-14 0)
(0.525 -3.74924e-15 0)
(0.525 -1.5122e-15 0)
(0.525 -4.10737e-15 0)
(0.525 -1.16622e-14 0)
(0.525 -2.53616e-14 0)
(0.525 -4.83103e-14 0)
(0.525 -8.61214e-14 0)
(0.525 -1.45132e-13 0)
(0.525 -2.37887e-13 0)
(0.525 -3.7011e-13 0)
(0.525 -3.84845e-13 0)
(0.575 -3.09889e-14 0)
(0.575 8.0915e-15 0)
(0.575 -6.31852e-15 0)
(0.575 -1.26181e-14 0)
(0.575 -1.56069e-14 0)
(0.575 -1.27086e-14 0)
(0.575 -6.83802e-15 0)
(0.575 -1.09933e-15 0)
(0.575 2.79446e-15 0)
(0.575 4.06331e-15 0)
(0.575 2.21146e-15 0)
(0.575 -3.27087e-15 0)
(0.575 -1.36e-14 0)
(0.575 -3.105e-14 0)
(0.575 -6.02933e-14 0)
(0.575 -1.09606e-13 0)
(0.575 -1.89236e-13 0)
(0.575 -3.15008e-13 0)
(0.575 -5.00554e-13 0)
(0.575 -5.16024e-13 0)
(0.625 2.35316e-13 0)
(0.625 3.10731e-13 0)
(0.625 2.26433e-13 0)
(0.625 1.48203e-13 0)
(0.625 8.93866e-14 0)
(0.625 5.22551e-14 0)
(0.625 3.19189e-14 0)
(0.625 2.12915e-14 0)
(0.625 1.52886e-14 0)
(0.625 1.07036e-14 0)
(0.625 5.43351e-15 0)
(0.625 -2.27058e-15 0)
(0.625 -1.44735e-14 0)
(0.625 -3.41441e-14 0)
(0.625 -6.72424e-14 0)
(0.625 -1.23836e-13 0)
(0.625 -2.17477e-13 0)
(0.625 -3.66594e-13 0)
(0.625 -5.94505e-13 0)
(0.625 -6.12887e-13 0)
(0.675 4.57474e-13 0)
(0.675 5.60194e-13 0)
(0.675 4.11098e-13 0)
(0.675 2.71646e-13 0)
(0.675 1.68247e-13 0)
(0.675 1.00183e-13 0)
(0.675 5.9941e-14 0)
(0.675 3.71346e-14 0)
(0.675 2.39005e-14 0)
(0.675 1.50597e-14 0)
(0.675 7.55868e-15 0)
(0.675 -1.34329e-15 0)
(0.675 -1.40976e-14 0)
(0.675 -3.4207e-14 0)
(0.675 -6.81489e-14 0)
(0.675 -1.26984e-13 0)
(0.675 -2.26349e-13 0)
(0.675 -3.86764e-13 0)
(0.675 -6.42623e-13 0)
(0.675 -6.66117e-13 0)
(0.725 6.12601e-13 0)
(0.725 7.28293e-13 0)
(0.725 5.24044e-13 0)
(0.725 3.41108e-13 0)
(0.725 2.10227e-13 0)
(0.725 1.24498e-13 0)
(0.725 7.34605e-14 0)
(0.725 4.42274e-14 0)
(0.725 2.73926e-14 0)
(0.725 1.65766e-14 0)
(0.725 8.23155e-15 0)
(0.725 -5.80187e-16 0)
(0.725 -1.25072e-14 0)
(0.725 -3.12754e-14 0)
(0.725 -6.30049e-14 0)
(0.725 -1.18531e-13 0)
(0.725 -2.14612e-13 0)
(0.725 -3.72664e-13 0)
(0.725 -6.38918e-13 0)
(0.725 -6.69387e-13 0)
(0.775 6.82254e-13 0)
(0.775 7.92092e-13 0)
(0.775 5.48739e-13 0)
(0.775 3.47516e-13 0)
(0.775 2.10777e-13 0)
(0.775 1.23062e-13 0)
(0.775 7.1577e-14 0)
(0.775 4.23475e-14 0)
(0.775 2.56133e-14 0)
(0.775 1.52248e-14 0)
(0.775 7.51737e-15 0)
(0.775 -1.07333e-16 0)
(0.775 -1.01243e-14 0)
(0.775 -2.57778e-14 0)
(0.775 -5.24758e-14 0)
(0.775 -9.96787e-14 0)
(0.775 -1.83645e-13 0)
(0.775 -3.25047e-13 0)
(0.775 -5.81314e-13 0)
(0.775 -6.19951e-13 0)
(0.825 6.5239e-13 0)
(0.825 7.3585e-13 0)
(0.825 4.80055e-13 0)
(0.825 2.92287e-13 0)
(0.825 1.73287e-13 0)
(0.825 9.90849e-14 0)
(0.825 5.66822e-14 0)
(0.825 3.31225e-14 0)
(0.825 1.97695e-14 0)
(0.825 1.15977e-14 0)
(0.825 5.71314e-15 0)
(0.825 2.95018e-17 0)
(0.825 -7.24215e-15 0)
(0.825 -1.85584e-14 0)
(0.825 -3.80656e-14 0)
(0.825 -7.31737e-14 0)
(0.825 -1.37647e-13 0)
(0.825 -2.48886e-13 0)
(0.825 -4.72122e-13 0)
(0.825 -5.18642e-13 0)
(0.875 5.21004e-13 0)
(0.875 5.62076e-13 0)
(0.875 3.32637e-13 0)
(0.875 1.92091e-13 0)
(0.875 1.10744e-13 0)
(0.875 6.15898e-14 0)
(0.875 3.4549e-14 0)
(0.875 1.99492e-14 0)
(0.875 1.1879e-14 0)
(0.875 6.96852e-15 0)
(0.875 3.38844e-15 0)
(0.875 1.34167e-17 0)
(0.875 -4.25261e-15 0)
(0.875 -1.09523e-14 0)
(0.875 -2.2477e-14 0)
(0.875 -4.36794e-14 0)
(0.875 -8.42462e-14 0)
(0.875 -1.55544e-13 0)
(0.875 -3.22392e-13 0)
(0.875 -3.7267e-13 0)
(0.925 3.0946e-13 0)
(0.925 3.11621e-13 0)
(0.925 1.56538e-13 0)
(0.925 8.33376e-14 0)
(0.925 4.64267e-14 0)
(0.925 2.47227e-14 0)
(0.925 1.34837e-14 0)
(0.925 7.70154e-15 0)
(0.925 4.58163e-15 0)
(0.925 2.78308e-15 0)
(0.925 1.37409e-15 0)
(0.925 3.38013e-17 0)
(0.925 -1.69642e-15 0)
(0.925 -4.45046e-15 0)
(0.925 -9.06391e-15 0)
(0.925 -1.78369e-14 0)
(0.925 -3.57394e-14 0)
(0.925 -6.69998e-14 0)
(0.925 -1.61145e-13 0)
(0.925 -2.03287e-13 0)
(0.975 9.56712e-14 0)
(0.975 8.94655e-14 0)
(0.975 3.58354e-14 0)
(0.975 1.68026e-14 0)
(0.975 8.95797e-15 0)
(0.975 4.42333e-15 0)
(0.975 2.31735e-15 0)
(0.975 1.31132e-15 0)
(0.975 7.82128e-16 0)
(0.975 4.92786e-16 0)
(0.975 2.44646e-16 0)
(0.975 8.36333e-19 0)
(0.975 -3.62217e-16 0)
(0.975 -9.27778e-16 0)
(0.975 -1.80512e-15 0)
(0.975 -3.5338e-15 0)
(0.975 -7.50963e-15 0)
(0.975 -1.4069e-14 0)
(0.975 -4.20508e-14 0)
(0.975 -5.8692e-14 0)
)
;

boundaryField
{
    top
    {
        type            fixedValue;
        value           uniform (1 0 0);
    }
    bottom
    {
        type            fixedValue;
        value           uniform (0 0 0);
    }
    inlet
    {
        type            zeroGradient;
    }
    outlet
    {
        type            zeroGradient;
    }
    frontAndBack
    {
        type            empty;
    }
}


// ************************************************************************* //
