/*--------------------------------*- C++ -*----------------------------------*\
  =========                 |
  \\      /  F ield         | OpenFOAM: The Open Source CFD Toolbox
   \\    /   O peration     | Website:  https://openfoam.org
    \\  /    A nd           | Version:  9
     \\/     M anipulation  |
\*---------------------------------------------------------------------------*/
FoamFile
{
    format      ascii;
    class       volScalarField;
    location    "2.2";
    object      p;
}
// * * * * * * * * * * * * * * * * * * * * * * * * * * * * * * * * * * * * * //

dimensions      [0 2 -2 0 0 0 0];

internalField   nonuniform List<scalar> 
400
(
1.82528e-08
3.02505e-08
2.92516e-08
2.78237e-08
2.54791e-08
2.27024e-08
1.98098e-08
1.68668e-08
1.39225e-08
1.10018e-08
8.09129e-09
5.17232e-09
2.23818e-09
-7.09836e-10
-3.6687e-09
-6.64406e-09
-9.55942e-09
-1.2205e-08
-1.55456e-08
-9.82115e-09
1.73105e-08
2.88196e-08
2.77317e-08
2.69128e-08
2.49265e-08
2.23691e-08
1.96169e-08
1.67589e-08
1.38647e-08
1.09728e-08
8.07898e-09
5.17071e-09
2.24643e-09
-6.86705e-10
-3.61465e-09
-6.52742e-09
-9.31204e-09
-1.16374e-08
-1.51752e-08
-9.56934e-09
1.75021e-08
2.89457e-08
2.68835e-08
2.63277e-08
2.45333e-08
2.21092e-08
1.94566e-08
1.6664e-08
1.38098e-08
1.09418e-08
8.06241e-09
5.16428e-09
2.24928e-09
-6.71603e-10
-3.57762e-09
-6.455e-09
-9.1867e-09
-1.1363e-08
-1.56639e-08
-9.92151e-09
1.81741e-08
3.02075e-08
2.67049e-08
2.60807e-08
2.43207e-08
2.19406e-08
1.93404e-08
1.65879e-08
1.37605e-08
1.09095e-08
8.04166e-09
5.15234e-09
2.24494e-09
-6.68163e-10
-3.56449e-09
-6.4368e-09
-9.18752e-09
-1.1383e-08
-1.66522e-08
-1.04664e-08
1.89101e-08
3.19553e-08
2.68728e-08
2.60243e-08
2.42166e-08
2.18289e-08
1.92516e-08
1.65225e-08
1.3713e-08
1.08751e-08
8.01735e-09
5.13585e-09
2.23429e-09
-6.74845e-10
-3.57044e-09
-6.45603e-09
-9.26402e-09
-1.15449e-08
-1.77577e-08
-1.09842e-08
1.95897e-08
3.38441e-08
2.72127e-08
2.60714e-08
2.41775e-08
2.17515e-08
1.91784e-08
1.64625e-08
1.3666e-08
1.0839e-08
7.99026e-09
5.11573e-09
2.21854e-09
-6.89348e-10
-3.58951e-09
-6.49723e-09
-9.37662e-09
-1.17565e-08
-1.87716e-08
-1.14055e-08
2.01892e-08
3.56824e-08
2.76248e-08
2.61685e-08
2.41733e-08
2.16933e-08
1.91131e-08
1.64047e-08
1.36186e-08
1.08015e-08
7.96126e-09
5.09305e-09
2.19918e-09
-7.08921e-10
-3.61578e-09
-6.54673e-09
-9.49666e-09
-1.1962e-08
-1.95878e-08
-1.17181e-08
2.06848e-08
3.73136e-08
2.80282e-08
2.62688e-08
2.41765e-08
2.16403e-08
1.90489e-08
1.63463e-08
1.35703e-08
1.07631e-08
7.93123e-09
5.06909e-09
2.17821e-09
-7.30142e-10
-3.64259e-09
-6.59136e-09
-9.59809e-09
-1.21192e-08
-2.01325e-08
-1.19103e-08
2.10616e-08
3.86156e-08
2.83578e-08
2.63359e-08
2.41659e-08
2.1582e-08
1.89813e-08
1.62856e-08
1.35208e-08
1.07243e-08
7.90114e-09
5.04529e-09
2.15784e-09
-7.49302e-10
-3.66349e-09
-6.6194e-09
-9.65999e-09
-1.21974e-08
-2.03637e-08
-1.1979e-08
2.13085e-08
3.94993e-08
2.85684e-08
2.63465e-08
2.41286e-08
2.15134e-08
1.89091e-08
1.6223e-08
1.34711e-08
1.06861e-08
7.87214e-09
5.02311e-09
2.14022e-09
-7.63075e-10
-3.6731e-09
-6.62225e-09
-9.66787e-09
-1.21789e-08
-2.0266e-08
-1.1925e-08
2.14173e-08
3.99066e-08
2.86352e-08
2.62918e-08
2.40614e-08
2.14351e-08
1.88344e-08
1.61607e-08
1.34229e-08
1.06499e-08
7.84545e-09
5.00383e-09
2.12704e-09
-7.69081e-10
-3.66802e-09
-6.59523e-09
-9.61494e-09
-1.2058e-08
-1.9847e-08
-1.17535e-08
2.13809e-08
3.98093e-08
2.85527e-08
2.6176e-08
2.39695e-08
2.13528e-08
1.87622e-08
1.61025e-08
1.33789e-08
1.06175e-08
7.82224e-09
4.9884e-09
2.11923e-09
-7.66333e-10
-3.64735e-09
-6.53827e-09
-9.50217e-09
-1.18406e-08
-1.9134e-08
-1.14726e-08
2.11927e-08
3.921e-08
2.83359e-08
2.60161e-08
2.38659e-08
2.12764e-08
1.87001e-08
1.60536e-08
1.33423e-08
1.05908e-08
7.80354e-09
4.9773e-09
2.11681e-09
-7.55493e-10
-3.61308e-09
-6.45611e-09
-9.33852e-09
-1.15432e-08
-1.81718e-08
-1.10932e-08
2.08506e-08
3.81482e-08
2.80212e-08
2.58413e-08
2.37698e-08
2.12188e-08
1.86561e-08
1.60192e-08
1.33163e-08
1.05715e-08
7.7901e-09
4.97047e-09
2.11885e-09
-7.38911e-10
-3.57007e-09
-6.35834e-09
-9.14085e-09
-1.11933e-08
-1.70232e-08
-1.06308e-08
2.03555e-08
3.67043e-08
2.76686e-08
2.56911e-08
2.37052e-08
2.11933e-08
1.86383e-08
1.60038e-08
1.33033e-08
1.05608e-08
7.78223e-09
4.96734e-09
2.12355e-09
-7.20403e-10
-3.52568e-09
-6.2588e-09
-8.93317e-09
-1.08284e-08
-1.57682e-08
-1.0105e-08
1.97214e-08
3.50081e-08
2.73567e-08
2.56113e-08
2.36961e-08
2.12121e-08
1.86523e-08
1.60102e-08
1.33046e-08
1.05591e-08
7.7797e-09
4.96685e-09
2.1285e-09
-7.04758e-10
-3.4889e-09
-6.17418e-09
-8.74504e-09
-1.04942e-08
-1.45043e-08
-9.54209e-09
1.89588e-08
3.32382e-08
2.71875e-08
2.56482e-08
2.37648e-08
2.12835e-08
1.87007e-08
1.60386e-08
1.33199e-08
1.05659e-08
7.78179e-09
4.96765e-09
2.13096e-09
-6.97197e-10
-3.46932e-09
-6.12265e-09
-8.60995e-09
-1.02461e-08
-1.33459e-08
-8.96993e-09
1.81789e-08
3.17443e-08
2.73327e-08
2.58748e-08
2.39401e-08
2.14181e-08
1.87861e-08
1.60894e-08
1.33487e-08
1.05806e-08
7.78767e-09
4.96816e-09
2.1277e-09
-7.03992e-10
-3.47839e-09
-6.12637e-09
-8.57357e-09
-1.01725e-08
-1.2483e-08
-8.4652e-09
1.77369e-08
3.11809e-08
2.811e-08
2.64119e-08
2.42725e-08
2.16339e-08
1.89147e-08
1.61641e-08
1.33917e-08
1.06037e-08
7.79745e-09
4.96763e-09
2.11636e-09
-7.30471e-10
-3.52783e-09
-6.21161e-09
-8.69644e-09
-1.04156e-08
-1.22511e-08
-8.26539e-09
1.82862e-08
3.21236e-08
2.95227e-08
2.72407e-08
2.47379e-08
2.19091e-08
1.90715e-08
1.62538e-08
1.34433e-08
1.06321e-08
7.80978e-09
4.96605e-09
2.09859e-09
-7.72634e-10
-3.61078e-09
-6.36732e-09
-8.97225e-09
-1.09705e-08
-1.28554e-08
-8.72574e-09
)
;

boundaryField
{
    top
    {
        type            zeroGradient;
    }
    bottom
    {
        type            zeroGradient;
    }
    inlet
    {
        type            fixedValue;
        value           uniform 0;
    }
    outlet
    {
        type            fixedValue;
        value           uniform 0;
    }
    frontAndBack
    {
        type            empty;
    }
}


// ************************************************************************* //
