/*--------------------------------*- C++ -*----------------------------------*\
  =========                 |
  \\      /  F ield         | OpenFOAM: The Open Source CFD Toolbox
   \\    /   O peration     | Website:  https://openfoam.org
    \\  /    A nd           | Version:  9
     \\/     M anipulation  |
\*---------------------------------------------------------------------------*/
FoamFile
{
    format      ascii;
    class       surfaceScalarField;
    location    "2.2";
    object      phi;
}
// * * * * * * * * * * * * * * * * * * * * * * * * * * * * * * * * * * * * * //

dimensions      [0 3 -1 0 0 0 0];

internalField   nonuniform List<scalar> 
760
(
1.24998e-06
-1.11792e-13
1.24998e-06
-9.30322e-14
1.24998e-06
-4.43169e-14
1.24998e-06
-2.51986e-14
1.24998e-06
-1.44646e-14
1.24998e-06
-7.94959e-15
1.24998e-06
-4.3566e-15
1.24998e-06
-2.28147e-15
1.24998e-06
-1.11387e-15
1.24998e-06
-5.07247e-16
1.24998e-06
-1.90437e-16
1.24998e-06
4.12732e-18
1.24998e-06
1.833e-16
1.24998e-06
4.73737e-16
1.24998e-06
1.12269e-15
1.24998e-06
2.83496e-15
1.24998e-06
6.76045e-15
1.24998e-06
1.51215e-14
1.24998e-06
4.7617e-14
5.49661e-14
3.74994e-06
-2.69116e-13
3.74994e-06
-2.52184e-13
3.74994e-06
-1.44186e-13
3.74994e-06
-8.58123e-14
3.74994e-06
-5.06404e-14
3.74994e-06
-2.88147e-14
3.74994e-06
-1.60957e-14
3.74994e-06
-8.66644e-15
3.74994e-06
-4.40987e-15
3.74994e-06
-2.05826e-15
3.74994e-06
-7.67572e-16
3.74994e-06
9.26074e-18
3.74994e-06
6.83946e-16
3.74994e-06
1.74273e-15
3.74994e-06
4.05638e-15
3.74994e-06
9.63443e-15
3.74994e-06
2.20816e-14
3.74994e-06
4.74151e-14
3.74994e-06
1.15557e-13
1.22124e-13
6.24991e-06
-4.09314e-13
6.24991e-06
-4.10649e-13
6.24991e-06
-2.6104e-13
6.24991e-06
-1.61649e-13
6.24991e-06
-9.79549e-14
6.24991e-06
-5.70878e-14
6.24991e-06
-3.23991e-14
6.24991e-06
-1.77218e-14
6.24991e-06
-9.19038e-15
6.24991e-06
-4.37324e-15
6.24991e-06
-1.68981e-15
6.24991e-06
-9.35237e-17
6.24991e-06
1.23154e-15
6.24991e-06
3.22377e-15
6.24991e-06
7.46615e-15
6.24991e-06
1.72351e-14
6.24991e-06
3.82694e-14
6.24991e-06
7.91593e-14
6.24991e-06
1.67674e-13
1.67799e-13
8.74987e-06
-5.1429e-13
8.74987e-06
-5.35654e-13
8.74987e-06
-3.64602e-13
8.74987e-06
-2.3395e-13
8.74987e-06
-1.45192e-13
8.74987e-06
-8.62988e-14
8.74987e-06
-4.96509e-14
8.74987e-06
-2.7482e-14
8.74987e-06
-1.44249e-14
8.74987e-06
-6.96274e-15
8.74987e-06
-2.7894e-15
8.74987e-06
-3.5653e-16
8.74987e-06
1.54431e-15
8.74987e-06
4.24529e-15
8.74987e-06
9.87522e-15
8.74987e-06
2.24907e-14
8.74987e-06
4.89711e-14
8.74987e-06
9.79241e-14
8.74987e-06
1.91506e-13
1.85731e-13
1.12498e-05
-5.73327e-13
1.12498e-05
-6.10478e-13
1.12498e-05
-4.36189e-13
1.12498e-05
-2.88247e-13
1.12498e-05
-1.82688e-13
1.12498e-05
-1.10408e-13
1.12498e-05
-6.42676e-14
1.12498e-05
-3.5888e-14
1.12498e-05
-1.89816e-14
1.12498e-05
-9.24985e-15
1.12498e-05
-3.82594e-15
1.12498e-05
-7.69086e-16
1.12498e-05
1.41099e-15
1.12498e-05
4.27115e-15
1.12498e-05
1.01564e-14
1.12498e-05
2.32518e-14
1.12498e-05
5.03999e-14
1.12498e-05
9.85882e-14
1.12498e-05
1.83842e-13
1.74258e-13
1.37498e-05
-5.83572e-13
1.37498e-05
-6.29429e-13
1.37498e-05
-4.65981e-13
1.37498e-05
-3.15397e-13
1.37498e-05
-2.03509e-13
1.37498e-05
-1.24732e-13
1.37498e-05
-7.32976e-14
1.37498e-05
-4.11759e-14
1.37498e-05
-2.18537e-14
1.37498e-05
-1.06944e-14
1.37498e-05
-4.5444e-15
1.37498e-05
-1.26408e-15
1.37498e-05
7.42248e-16
1.37498e-05
3.02611e-15
1.37498e-05
7.77212e-15
1.37498e-05
1.86344e-14
1.37498e-05
4.14834e-14
1.37498e-05
8.07971e-14
1.37498e-05
1.47622e-13
1.36487e-13
1.62498e-05
-5.46963e-13
1.62498e-05
-5.93652e-13
1.62498e-05
-4.51352e-13
1.62498e-05
-3.11366e-13
1.62498e-05
-2.03978e-13
1.62498e-05
-1.26484e-13
1.62498e-05
-7.48612e-14
1.62498e-05
-4.21656e-14
1.62498e-05
-2.23419e-14
1.62498e-05
-1.09016e-14
1.62498e-05
-4.73464e-15
1.62498e-05
-1.73989e-15
1.62498e-05
-4.21064e-16
1.62498e-05
5.31448e-16
1.62498e-05
2.79148e-15
1.62498e-05
8.95288e-15
1.62498e-05
2.32374e-14
1.62498e-05
4.74111e-14
1.62498e-05
8.86918e-14
7.77038e-14
1.87498e-05
-4.69417e-13
1.87498e-05
-5.09447e-13
1.87498e-05
-3.95254e-13
1.87498e-05
-2.76806e-13
1.87498e-05
-1.83712e-13
1.87498e-05
-1.15026e-13
1.87498e-05
-6.83873e-14
1.87498e-05
-3.84474e-14
1.87498e-05
-2.01796e-14
1.87498e-05
-9.70353e-15
1.87498e-05
-4.28181e-15
1.87498e-05
-2.09092e-15
1.87498e-05
-1.92883e-15
1.87498e-05
-2.93047e-15
1.87498e-05
-4.19796e-15
1.87498e-05
-4.561e-15
1.87498e-05
-1.83699e-15
1.87498e-05
3.14236e-15
1.87498e-05
1.46216e-14
4.74884e-15
2.12498e-05
-3.59549e-13
2.12498e-05
-3.8669e-13
2.12498e-05
-3.05004e-13
2.12498e-05
-2.16308e-13
2.12498e-05
-1.45368e-13
2.12498e-05
-9.18095e-14
2.12498e-05
-5.4656e-14
2.12498e-05
-3.0437e-14
2.12498e-05
-1.55841e-14
2.12498e-05
-7.19911e-15
2.12498e-05
-3.19822e-15
2.12498e-05
-2.23771e-15
2.12498e-05
-3.56304e-15
2.12498e-05
-6.89083e-15
2.12498e-05
-1.22539e-14
2.12498e-05
-2.008e-14
2.12498e-05
-3.0402e-14
2.12498e-05
-4.63745e-14
2.12498e-05
-6.64563e-14
-7.49878e-14
2.37498e-05
-2.28056e-13
2.37498e-05
-2.37887e-13
2.37498e-05
-1.91148e-13
2.37498e-05
-1.37575e-13
2.37498e-05
-9.41041e-14
2.37498e-05
-6.00901e-14
2.37498e-05
-3.56427e-14
2.37498e-05
-1.9301e-14
2.37498e-05
-9.22233e-15
2.37498e-05
-3.74359e-15
2.37498e-05
-1.62884e-15
2.37498e-05
-2.14887e-15
2.37498e-05
-5.08493e-15
2.37498e-05
-1.07903e-14
2.37498e-05
-2.0261e-14
2.37498e-05
-3.55216e-14
2.37498e-05
-5.88146e-14
2.37498e-05
-9.53298e-14
2.37498e-05
-1.46457e-13
-1.54013e-13
2.62498e-05
-8.69745e-14
2.62498e-05
-7.73026e-14
2.62498e-05
-6.6445e-14
2.62498e-05
-5.04667e-14
2.62498e-05
-3.68537e-14
2.62498e-05
-2.44182e-14
2.62498e-05
-1.41936e-14
2.62498e-05
-6.75718e-15
2.62498e-05
-2.09527e-15
2.62498e-05
1.12442e-16
2.62498e-05
1.72328e-16
2.62498e-05
-1.84872e-15
2.62498e-05
-6.27855e-15
2.62498e-05
-1.40746e-14
2.62498e-05
-2.71108e-14
2.62498e-05
-4.88471e-14
2.62498e-05
-8.35821e-14
2.62498e-05
-1.38271e-13
2.62498e-05
-2.17857e-13
-2.25225e-13
2.87498e-05
5.09915e-14
2.87498e-05
7.98166e-14
2.87498e-05
5.51545e-14
2.87498e-05
3.40629e-14
2.87498e-05
1.85761e-14
2.87498e-05
1.00356e-14
2.87498e-05
6.4359e-15
2.87498e-05
5.22287e-15
2.87498e-05
4.64297e-15
2.87498e-05
3.72652e-15
2.87498e-05
1.89208e-15
2.87498e-05
-1.40891e-15
2.87498e-05
-6.98322e-15
2.87498e-05
-1.62784e-14
2.87498e-05
-3.18579e-14
2.87498e-05
-5.83172e-14
2.87498e-05
-1.01718e-13
2.87498e-05
-1.70523e-13
2.87498e-05
-2.74057e-13
-2.82267e-13
3.12498e-05
1.73115e-13
3.12498e-05
2.18031e-13
3.12498e-05
1.59622e-13
3.12498e-05
1.05149e-13
3.12498e-05
6.45528e-14
3.12498e-05
3.82704e-14
3.12498e-05
2.31341e-14
3.12498e-05
1.4771e-14
3.12498e-05
9.90694e-15
3.12498e-05
6.49311e-15
3.12498e-05
3.22509e-15
3.12498e-05
-9.26783e-16
3.12498e-05
-7.11239e-15
3.12498e-05
-1.70905e-14
3.12498e-05
-3.38449e-14
3.12498e-05
-6.26937e-14
3.12498e-05
-1.1103e-13
3.12498e-05
-1.88515e-13
3.12498e-05
-3.09684e-13
-3.19842e-13
3.37498e-05
2.67502e-13
3.37498e-05
3.22672e-13
3.37498e-05
2.34115e-13
3.37498e-05
1.53389e-13
3.37498e-05
9.47536e-14
3.37498e-05
5.63112e-14
3.37498e-05
3.35038e-14
3.37498e-05
2.04907e-14
3.37498e-05
1.29026e-14
3.37498e-05
7.97468e-15
3.37498e-05
3.94428e-15
3.37498e-05
-4.96775e-16
3.37498e-05
-6.65998e-15
3.37498e-05
-1.63967e-14
3.37498e-05
-3.27925e-14
3.37498e-05
-6.13924e-14
3.37498e-05
-1.10347e-13
3.37498e-05
-1.90068e-13
3.37498e-05
-3.20888e-13
-3.34021e-13
3.62498e-05
3.23677e-13
3.62498e-05
3.80898e-13
3.62498e-05
2.68634e-13
3.62498e-05
1.72339e-13
3.62498e-05
1.0537e-13
3.62498e-05
6.20032e-14
3.62498e-05
3.63801e-14
3.62498e-05
2.17641e-14
3.62498e-05
1.33107e-14
3.62498e-05
8.00576e-15
3.62498e-05
3.95848e-15
3.62498e-05
-1.8375e-16
3.62498e-05
-5.69729e-15
3.62498e-05
-1.43019e-14
3.62498e-05
-2.8854e-14
3.62498e-05
-5.45915e-14
3.62498e-05
-9.97125e-14
3.62498e-05
-1.74698e-13
3.62498e-05
-3.05644e-13
-3.22494e-13
3.87498e-05
3.34231e-13
3.87498e-05
3.83656e-13
3.87498e-05
2.57984e-13
3.87498e-05
1.60253e-13
3.87498e-05
9.61555e-14
3.87498e-05
5.56642e-14
3.87498e-05
3.21671e-14
3.87498e-05
1.89387e-14
3.87498e-05
1.13812e-14
3.87498e-05
6.74512e-15
3.87498e-05
3.34035e-15
3.87498e-05
-7.05603e-18
3.87498e-05
-4.36512e-15
3.87498e-05
-1.11293e-14
3.87498e-05
-2.26333e-14
3.87498e-05
-4.32901e-14
3.87498e-05
-8.05473e-14
3.87498e-05
-1.43946e-13
3.87498e-05
-2.64324e-13
-2.85071e-13
4.12499e-05
2.9538e-13
4.12499e-05
3.27692e-13
4.12499e-05
2.04715e-13
4.12499e-05
1.21614e-13
4.12499e-05
7.12465e-14
4.12499e-05
4.03315e-14
4.12499e-05
2.2914e-14
4.12499e-05
1.33102e-14
4.12499e-05
7.90839e-15
4.12499e-05
4.65287e-15
4.12499e-05
2.31533e-15
4.12499e-05
5.83158e-17
4.12499e-05
-2.86404e-15
4.12499e-05
-7.40143e-15
4.12499e-05
-1.51613e-14
4.12499e-05
-2.93243e-14
4.12499e-05
-5.5776e-14
4.12499e-05
-1.01852e-13
4.12499e-05
-2.00327e-13
-2.24111e-13
4.37499e-05
2.11377e-13
4.37499e-05
2.21217e-13
4.37499e-05
1.22237e-13
4.37499e-05
6.86129e-14
4.37499e-05
3.91319e-14
4.37499e-05
2.15136e-14
4.37499e-05
1.19793e-14
4.37499e-05
6.88235e-15
4.37499e-05
4.06333e-15
4.37499e-05
2.39226e-15
4.37499e-05
1.20726e-15
4.37499e-05
6.09871e-17
4.37499e-05
-1.4451e-15
4.37499e-05
-3.7964e-15
4.37499e-05
-7.83062e-15
4.37499e-05
-1.53124e-14
4.37499e-05
-2.99536e-14
4.37499e-05
-5.56146e-14
4.37499e-05
-1.21897e-13
-1.45858e-13
4.62499e-05
9.34129e-14
4.62499e-05
8.95636e-14
4.62499e-05
3.99607e-14
4.62499e-05
2.05536e-14
4.62499e-05
1.1511e-14
4.62499e-05
6.03662e-15
4.62499e-05
3.27017e-15
4.62499e-05
1.86335e-15
4.62499e-05
1.10274e-15
4.62499e-05
6.61216e-16
4.62499e-05
3.51853e-16
4.62499e-05
4.18909e-17
4.62499e-05
-3.93999e-16
4.62499e-05
-1.08391e-15
4.62499e-05
-2.25213e-15
4.62499e-05
-4.45251e-15
4.62499e-05
-9.07815e-15
4.62499e-05
-1.67931e-14
4.62499e-05
-4.45802e-14
-6.03749e-14
4.875e-05
4.875e-05
4.875e-05
4.875e-05
4.875e-05
4.875e-05
4.875e-05
4.875e-05
4.875e-05
4.875e-05
4.875e-05
4.875e-05
4.875e-05
4.875e-05
4.875e-05
4.875e-05
4.875e-05
4.875e-05
4.875e-05
)
;

boundaryField
{
    top
    {
        type            calculated;
        value           uniform 0;
    }
    bottom
    {
        type            calculated;
        value           uniform 0;
    }
    inlet
    {
        type            calculated;
        value           nonuniform List<scalar> 
20
(
-1.24998e-06
-3.74994e-06
-6.24991e-06
-8.74987e-06
-1.12498e-05
-1.37498e-05
-1.62498e-05
-1.87498e-05
-2.12498e-05
-2.37498e-05
-2.62498e-05
-2.87498e-05
-3.12498e-05
-3.37498e-05
-3.62498e-05
-3.87498e-05
-4.12499e-05
-4.37499e-05
-4.62499e-05
-4.875e-05
)
;
    }
    outlet
    {
        type            calculated;
        value           nonuniform List<scalar> 
20
(
1.24998e-06
3.74994e-06
6.24991e-06
8.74987e-06
1.12498e-05
1.37498e-05
1.62498e-05
1.87498e-05
2.12498e-05
2.37498e-05
2.62498e-05
2.87498e-05
3.12498e-05
3.37498e-05
3.62498e-05
3.87498e-05
4.12499e-05
4.37499e-05
4.62499e-05
4.875e-05
)
;
    }
    frontAndBack
    {
        type            empty;
        value           nonuniform List<scalar> 0();
    }
}


// ************************************************************************* //
