/*--------------------------------*- C++ -*----------------------------------*\
  =========                 |
  \\      /  F ield         | OpenFOAM: The Open Source CFD Toolbox
   \\    /   O peration     | Website:  https://openfoam.org
    \\  /    A nd           | Version:  9
     \\/     M anipulation  |
\*---------------------------------------------------------------------------*/
FoamFile
{
    format      ascii;
    class       volVectorField;
    location    "2.2";
    object      U;
}
// * * * * * * * * * * * * * * * * * * * * * * * * * * * * * * * * * * * * * //

dimensions      [0 1 -1 0 0 0 0];

internalField   nonuniform List<vector> 
400
(
(0.0249996 -5.47025e-10 0)
(0.0249996 -4.37487e-10 0)
(0.0249996 -1.83732e-10 0)
(0.0249996 -9.78576e-11 0)
(0.0249996 -5.39581e-11 0)
(0.0249996 -2.85747e-11 0)
(0.0249996 -1.53954e-11 0)
(0.0249996 -7.69907e-12 0)
(0.0249996 -3.46873e-12 0)
(0.0249996 -1.48096e-12 0)
(0.0249996 -5.3602e-13 0)
(0.0249996 7.80525e-14 0)
(0.0249996 7.15238e-13 0)
(0.0249996 1.79686e-12 0)
(0.0249996 4.28348e-12 0)
(0.0249996 1.13922e-11 0)
(0.0249996 2.84553e-11 0)
(0.0249996 6.7915e-11 0)
(0.0249996 2.39991e-10 0)
(0.0249996 2.8144e-10 0)
(0.0749988 -1.88365e-09 0)
(0.0749988 -1.67454e-09 0)
(0.0749988 -8.74062e-10 0)
(0.0749988 -5.01668e-10 0)
(0.0749989 -2.8971e-10 0)
(0.0749989 -1.61052e-10 0)
(0.0749989 -8.85396e-11 0)
(0.0749989 -4.6828e-11 0)
(0.0749989 -2.32242e-11 0)
(0.0749989 -1.0543e-11 0)
(0.0749989 -3.75336e-12 0)
(0.0749989 3.54395e-13 0)
(0.0749989 4.05766e-12 0)
(0.0749989 1.00873e-11 0)
(0.0749989 2.36097e-11 0)
(0.0749989 5.77489e-11 0)
(0.0749989 1.35791e-10 0)
(0.0749989 3.02231e-10 0)
(0.0749988 8.21396e-10 0)
(0.0749988 9.01745e-10 0)
(0.124998 -3.42582e-09 0)
(0.124998 -3.32695e-09 0)
(0.124998 -2.00946e-09 0)
(0.124998 -1.21583e-09 0)
(0.124998 -7.25231e-10 0)
(0.124998 -4.17035e-10 0)
(0.124998 -2.34525e-10 0)
(0.124998 -1.27097e-10 0)
(0.124998 -6.52178e-11 0)
(0.124998 -3.07053e-11 0)
(0.124998 -1.1606e-11 0)
(0.124998 -1.01426e-13 0)
(0.124998 9.80059e-12 0)
(0.124998 2.5131e-11 0)
(0.124998 5.82064e-11 0)
(0.124998 1.35942e-10 0)
(0.124998 3.06252e-10 0)
(0.124998 6.46197e-10 0)
(0.124998 1.45381e-09 0)
(0.124998 1.49522e-09 0)
(0.174997 -4.71378e-09 0)
(0.174997 -4.82098e-09 0)
(0.174997 -3.17895e-09 0)
(0.174997 -2.00238e-09 0)
(0.174997 -1.22664e-09 0)
(0.174997 -7.21277e-10 0)
(0.174997 -4.11791e-10 0)
(0.174997 -2.2653e-10 0)
(0.174997 -1.18236e-10 0)
(0.174997 -5.66846e-11 0)
(0.174997 -2.22538e-11 0)
(0.174997 -1.86458e-12 0)
(0.174997 1.47415e-11 0)
(0.174997 3.91901e-11 0)
(0.174997 9.06338e-11 0)
(0.174997 2.07076e-10 0)
(0.174997 4.54081e-10 0)
(0.174997 9.21723e-10 0)
(0.174997 1.86139e-09 0)
(0.174997 1.83648e-09 0)
(0.224997 -5.55844e-09 0)
(0.224997 -5.85748e-09 0)
(0.224997 -4.0956e-09 0)
(0.224997 -2.66786e-09 0)
(0.224997 -1.67283e-09 0)
(0.224997 -1.00243e-09 0)
(0.224997 -5.80033e-10 0)
(0.224997 -3.22567e-10 0)
(0.224997 -1.70103e-10 0)
(0.224997 -8.25878e-11 0)
(0.224997 -3.36112e-11 0)
(0.224997 -5.35829e-12 0)
(0.224997 1.6024e-11 0)
(0.224997 4.54851e-11 0)
(0.224997 1.06272e-10 0)
(0.224997 2.41188e-10 0)
(0.224997 5.21374e-10 0)
(0.224997 1.02752e-09 0)
(0.224997 1.94782e-09 0)
(0.224997 1.87051e-09 0)
(0.274996 -5.90541e-09 0)
(0.274996 -6.3329e-09 0)
(0.274996 -4.61818e-09 0)
(0.274996 -3.09173e-09 0)
(0.274996 -1.97791e-09 0)
(0.274996 -1.2042e-09 0)
(0.274996 -7.04547e-10 0)
(0.274996 -3.94874e-10 0)
(0.274996 -2.09464e-10 0)
(0.274996 -1.0246e-10 0)
(0.274996 -4.2996e-11 0)
(0.274996 -1.01314e-11 0)
(0.274996 1.20451e-11 0)
(0.274996 3.9662e-11 0)
(0.274996 9.62636e-11 0)
(0.274996 2.22479e-10 0)
(0.274996 4.83751e-10 0)
(0.274996 9.3863e-10 0)
(0.274996 1.71838e-09 0)
(0.274996 1.61333e-09 0)
(0.324996 -5.76331e-09 0)
(0.324996 -6.23996e-09 0)
(0.324996 -4.69335e-09 0)
(0.324996 -3.21152e-09 0)
(0.324996 -2.08954e-09 0)
(0.324996 -1.28903e-09 0)
(0.324996 -7.60735e-10 0)
(0.324996 -4.28363e-10 0)
(0.324996 -2.27542e-10 0)
(0.324996 -1.11465e-10 0)
(0.324996 -4.79781e-11 0)
(0.324996 -1.52771e-11 0)
(0.324996 2.60271e-12 0)
(0.324996 2.05175e-11 0)
(0.324996 5.85124e-11 0)
(0.324996 1.48889e-10 0)
(0.324996 3.43308e-10 0)
(0.324996 6.73104e-10 0)
(0.324996 1.22665e-09 0)
(0.324996 1.11515e-09 0)
(0.374995 -5.17423e-09 0)
(0.374995 -5.62085e-09 0)
(0.374995 -4.32713e-09 0)
(0.374995 -3.01216e-09 0)
(0.374995 -1.98787e-09 0)
(0.374995 -1.23962e-09 0)
(0.374995 -7.36033e-10 0)
(0.374995 -4.14791e-10 0)
(0.374995 -2.19281e-10 0)
(0.374995 -1.06625e-10 0)
(0.374995 -4.68143e-11 0)
(0.374995 -1.96658e-11 0)
(0.374995 -1.12476e-11 0)
(0.374995 -1.02589e-11 0)
(0.374995 -3.33026e-12 0)
(0.374995 2.89956e-11 0)
(0.374995 1.19343e-10 0)
(0.374995 2.7203e-10 0)
(0.374995 5.4299e-10 0)
(0.374995 4.38608e-10 0)
(0.424995 -4.2128e-09 0)
(0.424995 -4.55913e-09 0)
(0.424995 -3.57344e-09 0)
(0.424995 -2.52164e-09 0)
(0.424995 -1.68512e-09 0)
(0.424995 -1.06039e-09 0)
(0.424995 -6.31585e-10 0)
(0.424995 -3.54184e-10 0)
(0.424995 -1.84393e-10 0)
(0.424995 -8.75454e-11 0)
(0.424995 -3.8936e-11 0)
(0.424995 -2.22991e-11 0)
(0.424995 -2.75438e-11 0)
(0.424995 -4.86836e-11 0)
(0.424995 -8.11667e-11 0)
(0.424995 -1.21078e-10 0)
(0.424995 -1.57524e-10 0)
(0.424995 -2.10955e-10 0)
(0.424995 -2.52117e-10 0)
(0.424995 -3.43511e-10 0)
(0.474995 -2.97722e-09 0)
(0.474995 -3.16886e-09 0)
(0.474995 -2.52414e-09 0)
(0.474995 -1.8036e-09 0)
(0.474995 -1.2219e-09 0)
(0.474995 -7.7586e-10 0)
(0.474995 -4.6175e-10 0)
(0.474995 -2.54782e-10 0)
(0.474995 -1.27475e-10 0)
(0.474995 -5.65801e-11 0)
(0.474995 -2.515e-11 0)
(0.474995 -2.25838e-11 0)
(0.474995 -4.38857e-11 0)
(0.474995 -8.93718e-11 0)
(0.474995 -1.64253e-10 0)
(0.474995 -2.8099e-10 0)
(0.474995 -4.51198e-10 0)
(0.474995 -7.17097e-10 0)
(0.474995 -1.07624e-09 0)
(0.474995 -1.15565e-09 0)
(0.524995 -1.58304e-09 0)
(0.524995 -1.58604e-09 0)
(0.524995 -1.29829e-09 0)
(0.524995 -9.48335e-10 0)
(0.524995 -6.60708e-10 0)
(0.524995 -4.26524e-10 0)
(0.524995 -2.5162e-10 0)
(0.524995 -1.31632e-10 0)
(0.524995 -5.72411e-11 0)
(0.524995 -1.84672e-11 0)
(0.524995 -7.54549e-12 0)
(0.524995 -2.0488e-11 0)
(0.524995 -5.7907e-11 0)
(0.524995 -1.26534e-10 0)
(0.524995 -2.41055e-10 0)
(0.524995 -4.29451e-10 0)
(0.524995 -7.24997e-10 0)
(0.524995 -1.18892e-09 0)
(0.524995 -1.85018e-09 0)
(0.524995 -1.92371e-09 0)
(0.574995 -1.55654e-10 0)
(0.574995 3.97114e-11 0)
(0.574995 -3.21118e-11 0)
(0.574995 -6.27022e-11 0)
(0.574995 -7.76727e-11 0)
(0.574995 -6.2832e-11 0)
(0.574995 -3.29868e-11 0)
(0.574995 -4.01296e-12 0)
(0.574995 1.50172e-11 0)
(0.574995 2.05288e-11 0)
(0.574995 1.08888e-11 0)
(0.574995 -1.65344e-11 0)
(0.574995 -6.76663e-11 0)
(0.574995 -1.54892e-10 0)
(0.574995 -3.00963e-10 0)
(0.574995 -5.47014e-10 0)
(0.574995 -9.45747e-10 0)
(0.574995 -1.57484e-09 0)
(0.574995 -2.50245e-09 0)
(0.574995 -2.57956e-09 0)
(0.624995 1.17577e-09 0)
(0.624995 1.55267e-09 0)
(0.624995 1.13156e-09 0)
(0.624995 7.41022e-10 0)
(0.624995 4.47268e-10 0)
(0.624995 2.62267e-10 0)
(0.624995 1.60876e-10 0)
(0.624995 1.07941e-10 0)
(0.624995 7.75277e-11 0)
(0.624995 5.38297e-11 0)
(0.624995 2.68788e-11 0)
(0.624995 -1.16387e-11 0)
(0.624995 -7.1904e-11 0)
(0.624995 -1.7044e-10 0)
(0.624995 -3.35708e-10 0)
(0.624995 -6.1837e-10 0)
(0.624995 -1.08693e-09 0)
(0.624995 -1.83288e-09 0)
(0.624995 -2.9724e-09 0)
(0.624995 -3.06411e-09 0)
(0.674996 2.28645e-09 0)
(0.674996 2.79988e-09 0)
(0.674996 2.05486e-09 0)
(0.674996 1.35802e-09 0)
(0.674996 8.41397e-10 0)
(0.674996 5.0179e-10 0)
(0.674996 3.01014e-10 0)
(0.674996 1.87027e-10 0)
(0.674996 1.20359e-10 0)
(0.674996 7.59101e-11 0)
(0.674996 3.75914e-11 0)
(0.674996 -6.83846e-12 0)
(0.674996 -7.01635e-11 0)
(0.674996 -1.70986e-10 0)
(0.674996 -3.40451e-10 0)
(0.674996 -6.34116e-10 0)
(0.674996 -1.13126e-09 0)
(0.674996 -1.93364e-09 0)
(0.674996 -3.21325e-09 0)
(0.674996 -3.33057e-09 0)
(0.724996 3.06202e-09 0)
(0.724996 3.64052e-09 0)
(0.724996 2.61957e-09 0)
(0.724996 1.70515e-09 0)
(0.724996 1.05126e-09 0)
(0.724996 6.23214e-10 0)
(0.724996 3.68491e-10 0)
(0.724996 2.22509e-10 0)
(0.724996 1.37569e-10 0)
(0.724996 8.35416e-11 0)
(0.724996 4.13169e-11 0)
(0.724996 -2.99216e-12 0)
(0.724996 -6.27939e-11 0)
(0.724996 -1.56469e-10 0)
(0.724996 -3.14497e-10 0)
(0.724996 -5.92059e-10 0)
(0.724996 -1.07273e-09 0)
(0.724996 -1.86314e-09 0)
(0.724996 -3.19474e-09 0)
(0.724996 -3.34705e-09 0)
(0.774997 3.41032e-09 0)
(0.774997 3.95955e-09 0)
(0.774997 2.74289e-09 0)
(0.774997 1.737e-09 0)
(0.774997 1.05391e-09 0)
(0.774997 6.16026e-10 0)
(0.774997 3.58848e-10 0)
(0.774997 2.1274e-10 0)
(0.774997 1.28674e-10 0)
(0.774997 7.66254e-11 0)
(0.774997 3.79256e-11 0)
(0.774997 -5.47306e-13 0)
(0.774997 -5.08788e-11 0)
(0.774997 -1.29046e-10 0)
(0.774997 -2.61621e-10 0)
(0.774997 -4.9795e-10 0)
(0.774997 -9.18166e-10 0)
(0.774997 -1.62528e-09 0)
(0.774997 -2.90665e-09 0)
(0.774997 -3.09982e-09 0)
(0.824997 3.26138e-09 0)
(0.824997 3.67853e-09 0)
(0.824997 2.39958e-09 0)
(0.824997 1.46072e-09 0)
(0.824997 8.66319e-10 0)
(0.824997 4.96179e-10 0)
(0.824997 2.84234e-10 0)
(0.824997 1.66015e-10 0)
(0.824997 9.9002e-11 0)
(0.824997 5.83377e-11 0)
(0.824997 2.89644e-11 0)
(0.824997 5.62873e-13 0)
(0.824997 -3.60981e-11 0)
(0.824997 -9.29113e-11 0)
(0.824997 -1.89897e-10 0)
(0.824997 -3.65628e-10 0)
(0.824997 -6.882e-10 0)
(0.824997 -1.24475e-09 0)
(0.824997 -2.36078e-09 0)
(0.824997 -2.59342e-09 0)
(0.874998 2.60468e-09 0)
(0.874998 2.80981e-09 0)
(0.874998 1.6629e-09 0)
(0.874998 9.59474e-10 0)
(0.874998 5.53545e-10 0)
(0.874998 3.08659e-10 0)
(0.874998 1.73432e-10 0)
(0.874998 1.00014e-10 0)
(0.874998 5.9095e-11 0)
(0.874998 3.46739e-11 0)
(0.874998 1.73301e-11 0)
(0.874998 6.79543e-13 0)
(0.874998 -2.09479e-11 0)
(0.874998 -5.45833e-11 0)
(0.874998 -1.12155e-10 0)
(0.874998 -2.18224e-10 0)
(0.874998 -4.21254e-10 0)
(0.874998 -7.78071e-10 0)
(0.874998 -1.61218e-09 0)
(0.874998 -1.86359e-09 0)
(0.924999 1.5463e-09 0)
(0.924999 1.55694e-09 0)
(0.924999 7.81491e-10 0)
(0.924999 4.14672e-10 0)
(0.924999 2.31511e-10 0)
(0.924999 1.23799e-10 0)
(0.924999 6.76528e-11 0)
(0.924999 3.85482e-11 0)
(0.924999 2.27236e-11 0)
(0.924999 1.34722e-11 0)
(0.924999 6.95198e-12 0)
(0.924999 5.40199e-13 0)
(0.924999 -8.11801e-12 0)
(0.924999 -2.17456e-11 0)
(0.924999 -4.51457e-11 0)
(0.924999 -8.91323e-11 0)
(0.924999 -1.7845e-10 0)
(0.924999 -3.34712e-10 0)
(0.924999 -8.05209e-10 0)
(0.924999 -1.01607e-09 0)
(0.975 4.7764e-10 0)
(0.975 4.46444e-10 0)
(0.975 1.77971e-10 0)
(0.975 8.26191e-11 0)
(0.975 4.43174e-11 0)
(0.975 2.20434e-11 0)
(0.975 1.15355e-11 0)
(0.975 6.49898e-12 0)
(0.975 3.83298e-12 0)
(0.975 2.29583e-12 0)
(0.975 1.21867e-12 0)
(0.975 8.13877e-14 0)
(0.975 -1.6452e-12 0)
(0.975 -4.4252e-12 0)
(0.975 -8.9699e-12 0)
(0.975 -1.76485e-11 0)
(0.975 -3.72192e-11 0)
(0.975 -6.99367e-11 0)
(0.975 -2.09564e-10 0)
(0.975 -2.93099e-10 0)
)
;

boundaryField
{
    top
    {
        type            fixedValue;
        value           uniform (1 0 0);
    }
    bottom
    {
        type            fixedValue;
        value           uniform (0 0 0);
    }
    inlet
    {
        type            zeroGradient;
    }
    outlet
    {
        type            zeroGradient;
    }
    frontAndBack
    {
        type            empty;
    }
}


// ************************************************************************* //
