/*--------------------------------*- C++ -*----------------------------------*\
  =========                 |
  \\      /  F ield         | OpenFOAM: The Open Source CFD Toolbox
   \\    /   O peration     | Website:  https://openfoam.org
    \\  /    A nd           | Version:  9
     \\/     M anipulation  |
\*---------------------------------------------------------------------------*/
FoamFile
{
    format      ascii;
    class       volScalarField;
    location    "0.3";
    object      p;
}
// * * * * * * * * * * * * * * * * * * * * * * * * * * * * * * * * * * * * * //

dimensions      [0 2 -2 0 0 0 0];

internalField   nonuniform List<scalar> 
400
(
1.53485e-06
2.93793e-06
3.06334e-06
2.88274e-06
2.57218e-06
2.21502e-06
1.87985e-06
1.57755e-06
1.29417e-06
1.02771e-06
7.64001e-07
5.03815e-07
2.52696e-07
-5.25491e-09
-2.91657e-07
-6.10968e-07
-9.35492e-07
-1.20617e-06
-1.37326e-06
-8.35759e-07
1.41916e-06
2.71203e-06
2.80553e-06
2.68239e-06
2.4346e-06
2.13029e-06
1.83129e-06
1.5538e-06
1.28433e-06
1.02365e-06
7.66467e-07
5.134e-07
2.68022e-07
1.64007e-08
-2.58173e-07
-5.56818e-07
-8.5125e-07
-1.08469e-06
-1.26272e-06
-7.75137e-07
1.38001e-06
2.6341e-06
2.6492e-06
2.54606e-06
2.33378e-06
2.06402e-06
1.79124e-06
1.53282e-06
1.27507e-06
1.02018e-06
7.69893e-07
5.23652e-07
2.82003e-07
3.40058e-08
-2.31527e-07
-5.14438e-07
-7.89781e-07
-1.00711e-06
-1.23845e-06
-7.69528e-07
1.38342e-06
2.66298e-06
2.56893e-06
2.45813e-06
2.26036e-06
2.01165e-06
1.7569e-06
1.51201e-06
1.26541e-06
1.01791e-06
7.74147e-07
5.32821e-07
2.93091e-07
4.76101e-08
-2.10344e-07
-4.81629e-07
-7.47688e-07
-9.67312e-07
-1.27397e-06
-7.87709e-07
1.39421e-06
2.73374e-06
2.53004e-06
2.40016e-06
2.20501e-06
1.96766e-06
1.72653e-06
1.49181e-06
1.25607e-06
1.01682e-06
7.77493e-07
5.38304e-07
2.99913e-07
5.78949e-08
-1.92471e-07
-4.54639e-07
-7.16871e-07
-9.4695e-07
-1.32966e-06
-8.0575e-07
1.40674e-06
2.81917e-06
2.5142e-06
2.36042e-06
2.16143e-06
1.92845e-06
1.69882e-06
1.47427e-06
1.24777e-06
1.01465e-06
7.77574e-07
5.3936e-07
3.02921e-07
6.57016e-08
-1.76748e-07
-4.31101e-07
-6.91929e-07
-9.34553e-07
-1.3869e-06
-8.19128e-07
1.42298e-06
2.90882e-06
2.51525e-06
2.33469e-06
2.129e-06
1.89683e-06
1.67605e-06
1.46053e-06
1.24052e-06
1.01056e-06
7.7407e-07
5.36551e-07
3.02828e-07
7.12685e-08
-1.63323e-07
-4.1088e-07
-6.71422e-07
-9.25687e-07
-1.43614e-06
-8.27264e-07
1.44201e-06
2.99033e-06
2.52523e-06
2.3193e-06
2.10722e-06
1.87507e-06
1.66017e-06
1.45087e-06
1.2343e-06
1.00511e-06
7.68291e-07
5.31616e-07
3.01217e-07
7.56974e-08
-1.51439e-07
-3.93039e-07
-6.53489e-07
-9.16795e-07
-1.47074e-06
-8.30051e-07
1.46178e-06
3.05307e-06
2.53761e-06
2.31246e-06
2.09632e-06
1.86439e-06
1.65232e-06
1.44559e-06
1.22953e-06
9.99526e-07
7.62178e-07
5.26735e-07
2.99965e-07
8.03041e-08
-1.40245e-07
-3.76804e-07
-6.36779e-07
-9.05506e-07
-1.48658e-06
-8.27608e-07
1.48077e-06
3.09073e-06
2.54885e-06
2.31385e-06
2.09682e-06
1.86513e-06
1.65277e-06
1.4449e-06
1.22678e-06
9.9508e-07
7.5753e-07
5.23755e-07
3.00474e-07
8.584e-08
-1.29505e-07
-3.62097e-07
-6.20844e-07
-8.90744e-07
-1.48175e-06
-8.20221e-07
1.49815e-06
3.10107e-06
2.55802e-06
2.32372e-06
2.10883e-06
1.87681e-06
1.66111e-06
1.44872e-06
1.22654e-06
9.92776e-07
7.55581e-07
5.23769e-07
3.0335e-07
9.23009e-08
-1.19647e-07
-3.4942e-07
-6.05912e-07
-8.72431e-07
-1.45612e-06
-8.08203e-07
1.5133e-06
3.0847e-06
2.56581e-06
2.34245e-06
2.13201e-06
1.89851e-06
1.67659e-06
1.45691e-06
1.22919e-06
9.93266e-07
7.56916e-07
5.27079e-07
3.08468e-07
9.91263e-08
-1.11454e-07
-3.39487e-07
-5.92527e-07
-8.51215e-07
-1.41106e-06
-7.91911e-07
1.52542e-06
3.04439e-06
2.57417e-06
2.37079e-06
2.16616e-06
1.92971e-06
1.69902e-06
1.46978e-06
1.23539e-06
9.9713e-07
7.6171e-07
5.33411e-07
3.1522e-07
1.05518e-07
-1.05739e-07
-3.32939e-07
-5.81372e-07
-8.28494e-07
-1.3496e-06
-7.71949e-07
1.5336e-06
2.98529e-06
2.58677e-06
2.41073e-06
2.21226e-06
1.97115e-06
1.72946e-06
1.4888e-06
1.24658e-06
1.00532e-06
7.70117e-07
5.42252e-07
3.22824e-07
1.1076e-07
-1.03062e-07
-3.30276e-07
-5.73382e-07
-8.0668e-07
-1.2768e-06
-7.49441e-07
1.53711e-06
2.91562e-06
2.60954e-06
2.46596e-06
2.27273e-06
2.02487e-06
1.77007e-06
1.51624e-06
1.26481e-06
1.0191e-06
7.82384e-07
5.53053e-07
3.30536e-07
1.14427e-07
-1.03603e-07
-3.31973e-07
-5.70003e-07
-7.89337e-07
-1.19977e-06
-7.26065e-07
1.53559e-06
2.84695e-06
2.65025e-06
2.54089e-06
2.3501e-06
2.09249e-06
1.82227e-06
1.55359e-06
1.29133e-06
1.03906e-06
7.983e-07
5.65081e-07
3.3767e-07
1.16384e-07
-1.07188e-07
-3.38635e-07
-5.7333e-07
-7.80722e-07
-1.12676e-06
-7.03472e-07
1.52955e-06
2.7948e-06
2.7177e-06
2.63879e-06
2.44481e-06
2.17304e-06
1.8847e-06
1.59965e-06
1.32499e-06
1.06386e-06
8.16394e-07
5.77198e-07
3.43629e-07
1.16513e-07
-1.13646e-07
-3.50967e-07
-5.85714e-07
-7.84837e-07
-1.06589e-06
-6.82502e-07
1.52968e-06
2.79334e-06
2.83485e-06
2.77341e-06
2.56458e-06
2.2701e-06
1.9584e-06
1.65396e-06
1.36428e-06
1.09134e-06
8.34879e-07
5.88834e-07
3.48353e-07
1.13788e-07
-1.24521e-07
-3.71123e-07
-6.11902e-07
-8.10463e-07
-1.03259e-06
-6.6776e-07
1.57013e-06
2.90372e-06
3.04155e-06
2.96869e-06
2.7239e-06
2.39167e-06
2.04682e-06
1.71684e-06
1.40783e-06
1.11985e-06
8.52449e-07
5.99066e-07
3.5131e-07
1.07428e-07
-1.41582e-07
-4.01775e-07
-6.57799e-07
-8.7194e-07
-1.05675e-06
-6.77624e-07
1.6973e-06
3.16034e-06
3.34912e-06
3.232e-06
2.92784e-06
2.54077e-06
2.1512e-06
1.78802e-06
1.45481e-06
1.14894e-06
8.68962e-07
6.07399e-07
3.51865e-07
9.74113e-08
-1.65313e-07
-4.44987e-07
-7.27523e-07
-9.76525e-07
-1.16197e-06
-7.39038e-07
)
;

boundaryField
{
    top
    {
        type            zeroGradient;
    }
    bottom
    {
        type            zeroGradient;
    }
    inlet
    {
        type            fixedValue;
        value           uniform 0;
    }
    outlet
    {
        type            fixedValue;
        value           uniform 0;
    }
    frontAndBack
    {
        type            empty;
    }
}


// ************************************************************************* //
