/*--------------------------------*- C++ -*----------------------------------*\
  =========                 |
  \\      /  F ield         | OpenFOAM: The Open Source CFD Toolbox
   \\    /   O peration     | Website:  https://openfoam.org
    \\  /    A nd           | Version:  9
     \\/     M anipulation  |
\*---------------------------------------------------------------------------*/
FoamFile
{
    format      ascii;
    class       surfaceScalarField;
    location    "0.3";
    object      phi;
}
// * * * * * * * * * * * * * * * * * * * * * * * * * * * * * * * * * * * * * //

dimensions      [0 3 -1 0 0 0 0];

internalField   nonuniform List<scalar> 
760
(
1.10979e-06
-7.71634e-12
1.10979e-06
-9.07752e-12
1.1098e-06
-6.55435e-12
1.10981e-06
-4.38878e-12
1.10981e-06
-2.72502e-12
1.10981e-06
-1.48097e-12
1.10981e-06
-7.35029e-13
1.10981e-06
-3.07032e-13
1.10981e-06
-6.8147e-14
1.10981e-06
-6.18698e-17
1.10981e-06
6.88474e-14
1.10981e-06
1.37844e-13
1.10981e-06
1.83897e-13
1.10981e-06
2.81504e-13
1.10981e-06
5.27438e-13
1.10981e-06
1.02918e-12
1.10981e-06
1.87688e-12
1.1098e-06
3.16768e-12
1.1098e-06
5.37663e-12
5.39175e-12
3.33283e-06
-1.83873e-11
3.33285e-06
-2.37295e-11
3.33286e-06
-1.89379e-11
3.33287e-06
-1.32479e-11
3.33287e-06
-8.43042e-12
3.33288e-06
-4.73781e-12
3.33288e-06
-2.38743e-12
3.33288e-06
-1.01995e-12
3.33288e-06
-2.39448e-13
3.33288e-06
8.03806e-14
3.33288e-06
2.77359e-13
3.33288e-06
4.46795e-13
3.33288e-06
6.49313e-13
3.33288e-06
1.05381e-12
3.33288e-06
1.8766e-12
3.33287e-06
3.41212e-12
3.33287e-06
5.93247e-12
3.33286e-06
9.56136e-12
3.33285e-06
1.43345e-11
1.29619e-11
5.56615e-06
-2.67251e-11
5.56616e-06
-3.587e-11
5.56618e-06
-2.98796e-11
5.56618e-06
-2.13777e-11
5.56619e-06
-1.37327e-11
5.56619e-06
-7.76641e-12
5.56619e-06
-3.83679e-12
5.56619e-06
-1.52943e-12
5.56619e-06
-2.31072e-13
5.56619e-06
3.27803e-13
5.56619e-06
6.28189e-13
5.56619e-06
8.7211e-13
5.56619e-06
1.2199e-12
5.56619e-06
1.93744e-12
5.56619e-06
3.36577e-12
5.56619e-06
5.97749e-12
5.56618e-06
1.01939e-11
5.56618e-06
1.60328e-11
5.56617e-06
2.2532e-11
1.93392e-11
7.8163e-06
-3.06467e-11
7.81631e-06
-4.19537e-11
7.81631e-06
-3.60352e-11
7.81632e-06
-2.61545e-11
7.81632e-06
-1.68269e-11
7.81632e-06
-9.41136e-12
7.81632e-06
-4.42094e-12
7.81632e-06
-1.50107e-12
7.81632e-06
1.1633e-13
7.81632e-06
8.0686e-13
7.81632e-06
1.12601e-12
7.81632e-06
1.372e-12
7.81632e-06
1.78945e-12
7.81632e-06
2.7199e-12
7.81632e-06
4.59577e-12
7.81632e-06
8.00317e-12
7.81631e-06
1.34329e-11
7.81631e-06
2.07168e-11
7.8163e-06
2.79182e-11
2.33597e-11
1.00894e-05
-3.00906e-11
1.00894e-05
-4.17452e-11
1.00894e-05
-3.64956e-11
1.00894e-05
-2.66061e-11
1.00894e-05
-1.69196e-11
1.00894e-05
-9.1175e-12
1.00894e-05
-3.80427e-12
1.00894e-05
-7.33341e-13
1.00894e-05
8.9808e-13
1.00894e-05
1.53607e-12
1.00894e-05
1.75606e-12
1.00894e-05
1.91042e-12
1.00894e-05
2.29391e-12
1.00894e-05
3.28581e-12
1.00894e-05
5.35389e-12
1.00894e-05
9.11569e-12
1.00894e-05
1.50541e-11
1.00894e-05
2.28147e-11
1.00894e-05
2.98881e-11
2.46863e-11
1.23911e-05
-2.54204e-11
1.23911e-05
-3.57746e-11
1.23911e-05
-3.1366e-11
1.23911e-05
-2.25602e-11
1.23911e-05
-1.37597e-11
1.23911e-05
-6.65372e-12
1.23911e-05
-1.83632e-12
1.23911e-05
8.50623e-13
1.23911e-05
2.14415e-12
1.23911e-05
2.50854e-12
1.23911e-05
2.49216e-12
1.23911e-05
2.45061e-12
1.23911e-05
2.68403e-12
1.23911e-05
3.56388e-12
1.23911e-05
5.53207e-12
1.23911e-05
9.15869e-12
1.23911e-05
1.48634e-11
1.23911e-05
2.21663e-11
1.23911e-05
2.84269e-11
2.33165e-11
1.47262e-05
-1.73288e-11
1.47262e-05
-2.50189e-11
1.47262e-05
-2.13657e-11
1.47262e-05
-1.4421e-11
1.47262e-05
-7.55289e-12
1.47262e-05
-2.11451e-12
1.47262e-05
1.43017e-12
1.47262e-05
3.19937e-12
1.47262e-05
3.80861e-12
1.47262e-05
3.68087e-12
1.47262e-05
3.29291e-12
1.47262e-05
2.95546e-12
1.47262e-05
2.92862e-12
1.47262e-05
3.5313e-12
1.47262e-05
5.12404e-12
1.47262e-05
8.16432e-12
1.47262e-05
1.29765e-11
1.47262e-05
1.90403e-11
1.47262e-05
2.39767e-11
1.95805e-11
1.70988e-05
-6.71918e-12
1.70988e-05
-1.07256e-11
1.70988e-05
-7.62734e-12
1.70988e-05
-3.03482e-12
1.70988e-05
1.11511e-12
1.70988e-05
4.11034e-12
1.70987e-05
5.74158e-12
1.70987e-05
6.13692e-12
1.70987e-05
5.76951e-12
1.70987e-05
4.96872e-12
1.70987e-05
4.09955e-12
1.70987e-05
3.38809e-12
1.70987e-05
3.01531e-12
1.70987e-05
3.21032e-12
1.70987e-05
4.20903e-12
1.70987e-05
6.30967e-12
1.70987e-05
9.72591e-12
1.70988e-05
1.39767e-11
1.70988e-05
1.72357e-11
1.40045e-11
1.95121e-05
5.37452e-12
1.9512e-05
5.6887e-12
1.9512e-05
8.43537e-12
1.9512e-05
1.04203e-11
1.9512e-05
1.13563e-11
1.9512e-05
1.13888e-11
1.9512e-05
1.06707e-11
1.9512e-05
9.37778e-12
1.9512e-05
7.83858e-12
1.9512e-05
6.25129e-12
1.9512e-05
4.83844e-12
1.9512e-05
3.7128e-12
1.9512e-05
2.948e-12
1.9512e-05
2.65804e-12
1.9512e-05
2.92717e-12
1.9512e-05
3.86755e-12
1.9512e-05
5.57557e-12
1.9512e-05
7.66454e-12
1.9512e-05
9.02861e-12
7.22304e-12
2.19681e-05
1.78498e-11
2.19681e-05
2.27109e-11
2.1968e-05
2.52318e-11
2.1968e-05
2.4542e-11
2.1968e-05
2.20686e-11
2.1968e-05
1.89159e-11
2.1968e-05
1.56643e-11
2.1968e-05
1.25561e-11
2.1968e-05
9.7808e-12
2.1968e-05
7.38383e-12
2.1968e-05
5.42777e-12
2.1968e-05
3.89694e-12
2.1968e-05
2.74286e-12
2.1968e-05
1.95381e-12
2.1968e-05
1.45282e-12
2.1968e-05
1.15846e-12
2.1968e-05
1.0469e-12
2.1968e-05
8.47702e-13
2.1968e-05
2.21426e-13
-8.17321e-14
2.4468e-05
2.95909e-11
2.4468e-05
3.87964e-11
2.44679e-05
4.10897e-11
2.44679e-05
3.78142e-11
2.44679e-05
3.20373e-11
2.44679e-05
2.57971e-11
2.44679e-05
2.01057e-11
2.44679e-05
1.52685e-11
2.44679e-05
1.13432e-11
2.44679e-05
8.216e-12
2.44679e-05
5.78778e-12
2.44679e-05
3.9142e-12
2.44679e-05
2.42485e-12
2.44679e-05
1.18679e-12
2.44679e-05
-3.04609e-14
2.44679e-05
-1.4916e-12
2.44679e-05
-3.34119e-12
2.44679e-05
-5.7455e-12
2.44679e-05
-8.33981e-12
-7.22789e-12
2.70118e-05
3.95242e-11
2.70117e-05
5.24372e-11
2.70117e-05
5.43556e-11
2.70117e-05
4.87285e-11
2.70117e-05
4.00515e-11
2.70117e-05
3.11466e-11
2.70117e-05
2.33912e-11
2.70117e-05
1.71281e-11
2.70117e-05
1.22905e-11
2.70117e-05
8.61445e-12
2.70117e-05
5.85341e-12
2.70117e-05
3.74946e-12
2.70117e-05
2.02507e-12
2.70117e-05
4.45067e-13
2.70117e-05
-1.35119e-12
2.70117e-05
-3.78577e-12
2.70117e-05
-7.1197e-12
2.70117e-05
-1.14552e-11
2.70117e-05
-1.58749e-11
-1.35732e-11
2.95983e-05
4.6676e-11
2.95983e-05
6.22382e-11
2.95983e-05
6.35084e-11
2.95983e-05
5.59193e-11
2.95983e-05
4.50353e-11
2.95983e-05
3.41964e-11
2.95983e-05
2.50132e-11
2.95983e-05
1.78229e-11
2.95983e-05
1.24442e-11
2.95983e-05
8.48674e-12
2.95983e-05
5.5876e-12
2.95983e-05
3.40407e-12
2.95983e-05
1.57926e-12
2.95983e-05
-1.93171e-13
2.95983e-05
-2.36686e-12
2.95983e-05
-5.48311e-12
2.95983e-05
-9.90578e-12
2.95983e-05
-1.57296e-11
2.95983e-05
-2.17052e-11
-1.85481e-11
3.22256e-05
5.02336e-11
3.22256e-05
6.70067e-11
3.22256e-05
6.72965e-11
3.22256e-05
5.83188e-11
3.22256e-05
4.61912e-11
3.22256e-05
3.44118e-11
3.22256e-05
2.46459e-11
3.22256e-05
1.71743e-11
3.22256e-05
1.17192e-11
3.22256e-05
7.80346e-12
3.22256e-05
4.99288e-12
3.22256e-05
2.90029e-12
3.22256e-05
1.1266e-12
3.22256e-05
-6.66429e-13
3.22256e-05
-2.97684e-12
3.22256e-05
-6.41811e-12
3.22256e-05
-1.14301e-11
3.22256e-05
-1.81563e-11
3.22256e-05
-2.52824e-11
-2.16848e-11
3.48904e-05
4.96162e-11
3.48904e-05
6.58709e-11
3.48904e-05
6.49097e-11
3.48904e-05
5.53346e-11
3.48904e-05
4.31513e-11
3.48905e-05
3.16047e-11
3.48905e-05
2.22222e-11
3.48905e-05
1.51866e-11
3.48905e-05
1.01536e-11
3.48905e-05
6.61388e-12
3.48905e-05
4.11849e-12
3.48905e-05
2.28326e-12
3.48905e-05
7.08245e-13
3.48905e-05
-9.35002e-13
3.48905e-05
-3.13193e-12
3.48905e-05
-6.51443e-12
3.48905e-05
-1.15577e-11
3.48905e-05
-1.84895e-11
3.48905e-05
-2.62155e-11
-2.26431e-11
3.75888e-05
4.45702e-11
3.75888e-05
5.84516e-11
3.75888e-05
5.62013e-11
3.75888e-05
4.70485e-11
3.75888e-05
3.61235e-11
3.75888e-05
2.60293e-11
3.75888e-05
1.79907e-11
3.75888e-05
1.20762e-11
3.75888e-05
7.92215e-12
3.75888e-05
5.05112e-12
3.75888e-05
3.06091e-12
3.75888e-05
1.61862e-12
3.75888e-05
3.63964e-13
3.75888e-05
-9.84734e-13
3.75888e-05
-2.84094e-12
3.75888e-05
-5.7949e-12
3.75888e-05
-1.03055e-11
3.75888e-05
-1.66808e-11
3.75888e-05
-2.43047e-11
-2.12425e-11
4.03157e-05
3.53242e-11
4.03157e-05
4.5143e-11
4.03157e-05
4.19838e-11
4.03157e-05
3.443e-11
4.03158e-05
2.60162e-11
4.03158e-05
1.84418e-11
4.03158e-05
1.25361e-11
4.03158e-05
8.27251e-12
4.03158e-05
5.32807e-12
4.03158e-05
3.32246e-12
4.03158e-05
1.95532e-12
4.03158e-05
9.8503e-13
4.03158e-05
1.25965e-13
4.03158e-05
-8.29399e-13
4.03158e-05
-2.17371e-12
4.03158e-05
-4.39019e-12
4.03158e-05
-7.86241e-12
4.03158e-05
-1.29266e-11
4.03158e-05
-1.96036e-11
-1.75111e-11
4.30657e-05
2.28209e-11
4.30657e-05
2.75919e-11
4.30657e-05
2.4418e-11
4.30657e-05
1.95432e-11
4.30657e-05
1.45115e-11
4.30657e-05
1.01027e-11
4.30657e-05
6.74927e-12
4.30658e-05
4.37945e-12
4.30658e-05
2.76959e-12
4.30658e-05
1.68449e-12
4.30658e-05
9.58839e-13
4.30658e-05
4.60156e-13
4.30658e-05
6.91519e-15
4.30658e-05
-5.12192e-13
4.30658e-05
-1.25873e-12
4.30658e-05
-2.54977e-12
4.30658e-05
-4.62466e-12
4.30657e-05
-7.75426e-12
4.30657e-05
-1.25352e-11
-1.17478e-11
4.58325e-05
9.14579e-12
4.58325e-05
9.90204e-12
4.58326e-05
7.97815e-12
4.58326e-05
6.13278e-12
4.58326e-05
4.42674e-12
4.58326e-05
2.98597e-12
4.58326e-05
1.94039e-12
4.58326e-05
1.2318e-12
4.58326e-05
7.6131e-13
4.58326e-05
4.43524e-13
4.58326e-05
2.40234e-13
4.58326e-05
1.16341e-13
4.58326e-05
-8.03894e-15
4.58326e-05
-1.57968e-13
4.58326e-05
-3.7113e-13
4.58326e-05
-7.75813e-13
4.58326e-05
-1.4569e-12
4.58326e-05
-2.54132e-12
4.58326e-05
-4.68828e-12
-4.89188e-12
4.86097e-05
4.86097e-05
4.86097e-05
4.86097e-05
4.86097e-05
4.86097e-05
4.86097e-05
4.86097e-05
4.86097e-05
4.86097e-05
4.86097e-05
4.86097e-05
4.86097e-05
4.86097e-05
4.86097e-05
4.86097e-05
4.86097e-05
4.86097e-05
4.86097e-05
)
;

boundaryField
{
    top
    {
        type            calculated;
        value           uniform 0;
    }
    bottom
    {
        type            calculated;
        value           uniform 0;
    }
    inlet
    {
        type            calculated;
        value           nonuniform List<scalar> 
20
(
-1.10978e-06
-3.33282e-06
-5.56614e-06
-7.8163e-06
-1.00894e-05
-1.23911e-05
-1.47262e-05
-1.70988e-05
-1.95121e-05
-2.19681e-05
-2.4468e-05
-2.70118e-05
-2.95984e-05
-3.22256e-05
-3.48904e-05
-3.75888e-05
-4.03157e-05
-4.30657e-05
-4.58325e-05
-4.86097e-05
)
;
    }
    outlet
    {
        type            calculated;
        value           nonuniform List<scalar> 
20
(
1.10979e-06
3.33285e-06
5.56616e-06
7.8163e-06
1.00894e-05
1.23911e-05
1.47262e-05
1.70988e-05
1.9512e-05
2.1968e-05
2.44679e-05
2.70117e-05
2.95983e-05
3.22256e-05
3.48905e-05
3.75888e-05
4.03158e-05
4.30657e-05
4.58326e-05
4.86097e-05
)
;
    }
    frontAndBack
    {
        type            empty;
        value           nonuniform List<scalar> 0();
    }
}


// ************************************************************************* //
