/*--------------------------------*- C++ -*----------------------------------*\
  =========                 |
  \\      /  F ield         | OpenFOAM: The Open Source CFD Toolbox
   \\    /   O peration     | Website:  https://openfoam.org
    \\  /    A nd           | Version:  9
     \\/     M anipulation  |
\*---------------------------------------------------------------------------*/
FoamFile
{
    format      ascii;
    class       volVectorField;
    location    "0.3";
    object      U;
}
// * * * * * * * * * * * * * * * * * * * * * * * * * * * * * * * * * * * * * //

dimensions      [0 1 -1 0 0 0 0];

internalField   nonuniform List<vector> 
400
(
(0.0221956 -4.04071e-08 0)
(0.0221958 -4.92886e-08 0)
(0.022196 -3.51048e-08 0)
(0.0221961 -2.34421e-08 0)
(0.0221961 -1.45931e-08 0)
(0.0221962 -7.9686e-09 0)
(0.0221962 -4.20742e-09 0)
(0.0221962 -1.58333e-09 0)
(0.0221962 -4.18654e-10 0)
(0.0221962 -4.98168e-10 0)
(0.0221962 5.88081e-11 0)
(0.0221962 8.19344e-10 0)
(0.0221962 1.12963e-09 0)
(0.0221962 1.45846e-09 0)
(0.0221962 2.55865e-09 0)
(0.0221962 5.04196e-09 0)
(0.0221962 9.21351e-09 0)
(0.0221961 1.56212e-08 0)
(0.022196 2.71826e-08 0)
(0.0221959 2.70446e-08 0)
(0.0666565 -1.30828e-07 0)
(0.0666567 -1.62267e-07 0)
(0.0666571 -1.23777e-07 0)
(0.0666573 -8.45101e-08 0)
(0.0666574 -5.30362e-08 0)
(0.0666575 -2.92945e-08 0)
(0.0666575 -1.46599e-08 0)
(0.0666576 -6.46076e-09 0)
(0.0666576 -1.65085e-09 0)
(0.0666576 1.92857e-10 0)
(0.0666576 1.40633e-09 0)
(0.0666576 2.55869e-09 0)
(0.0666576 3.72484e-09 0)
(0.0666575 6.01794e-09 0)
(0.0666575 1.09352e-08 0)
(0.0666575 2.04426e-08 0)
(0.0666574 3.64331e-08 0)
(0.0666573 6.04804e-08 0)
(0.0666571 9.63524e-08 0)
(0.066657 9.11502e-08 0)
(0.111323 -2.33203e-07 0)
(0.111323 -3.08098e-07 0)
(0.111323 -2.52308e-07 0)
(0.111324 -1.78853e-07 0)
(0.111324 -1.14651e-07 0)
(0.111324 -6.50311e-08 0)
(0.111324 -3.2827e-08 0)
(0.111324 -1.36887e-08 0)
(0.111324 -3.05842e-09 0)
(0.111324 1.34132e-09 0)
(0.111324 4.16126e-09 0)
(0.111324 6.57584e-09 0)
(0.111324 9.43203e-09 0)
(0.111324 1.50475e-08 0)
(0.111324 2.64456e-08 0)
(0.111324 4.75731e-08 0)
(0.111324 8.18609e-08 0)
(0.111324 1.30067e-07 0)
(0.111323 1.87622e-07 0)
(0.111323 1.64664e-07 0)
(0.156326 -2.97391e-07 0)
(0.156326 -4.02884e-07 0)
(0.156326 -3.41873e-07 0)
(0.156326 -2.46887e-07 0)
(0.156326 -1.59076e-07 0)
(0.156326 -8.97367e-08 0)
(0.156326 -4.37415e-08 0)
(0.156326 -1.6955e-08 0)
(0.156326 -1.63063e-09 0)
(0.156326 5.2289e-09 0)
(0.156326 8.58925e-09 0)
(0.156326 1.11246e-08 0)
(0.156326 1.50814e-08 0)
(0.156326 2.36059e-08 0)
(0.156326 4.06405e-08 0)
(0.156326 7.16115e-08 0)
(0.156326 1.21234e-07 0)
(0.156326 1.88791e-07 0)
(0.156326 2.59102e-07 0)
(0.156326 2.19495e-07 0)
(0.201788 -3.1483e-07 0)
(0.201788 -4.33432e-07 0)
(0.201788 -3.76974e-07 0)
(0.201788 -2.75022e-07 0)
(0.201788 -1.76836e-07 0)
(0.201788 -9.81329e-08 0)
(0.201788 -4.45457e-08 0)
(0.201788 -1.32775e-08 0)
(0.201788 3.90554e-09 0)
(0.201788 1.11721e-08 0)
(0.201788 1.41721e-08 0)
(0.201788 1.63555e-08 0)
(0.201788 2.06239e-08 0)
(0.201788 3.06925e-08 0)
(0.201788 5.11646e-08 0)
(0.201788 8.82279e-08 0)
(0.201788 1.46896e-07 0)
(0.201788 2.244e-07 0)
(0.201788 2.9738e-07 0)
(0.201788 2.47155e-07 0)
(0.247822 -2.87127e-07 0)
(0.247822 -4.00366e-07 0)
(0.247822 -3.52285e-07 0)
(0.247822 -2.56652e-07 0)
(0.247821 -1.61488e-07 0)
(0.247821 -8.45041e-08 0)
(0.247821 -3.17542e-08 0)
(0.247821 -1.47238e-09 0)
(0.247821 1.40804e-08 0)
(0.247821 1.96446e-08 0)
(0.247821 2.09764e-08 0)
(0.247821 2.17762e-08 0)
(0.247821 2.51612e-08 0)
(0.247821 3.49889e-08 0)
(0.247821 5.59276e-08 0)
(0.247821 9.40759e-08 0)
(0.247821 1.54044e-07 0)
(0.247821 2.31444e-07 0)
(0.247821 2.99406e-07 0)
(0.247821 2.46474e-07 0)
(0.294524 -2.21142e-07 0)
(0.294524 -3.13863e-07 0)
(0.294524 -2.7423e-07 0)
(0.294523 -1.94186e-07 0)
(0.294523 -1.13656e-07 0)
(0.294523 -4.87934e-08 0)
(0.294523 -5.14914e-09 0)
(0.294523 1.84817e-08 0)
(0.294523 2.88187e-08 0)
(0.294523 3.04729e-08 0)
(0.294523 2.87317e-08 0)
(0.294523 2.70563e-08 0)
(0.294523 2.83573e-08 0)
(0.294523 3.61794e-08 0)
(0.294523 5.46435e-08 0)
(0.294523 8.90122e-08 0)
(0.294523 1.43045e-07 0)
(0.294523 2.11525e-07 0)
(0.294523 2.68455e-07 0)
(0.294523 2.19824e-07 0)
(0.341976 -1.25191e-07 0)
(0.341976 -1.8544e-07 0)
(0.341976 -1.52425e-07 0)
(0.341975 -9.40547e-08 0)
(0.341975 -3.7418e-08 0)
(0.341975 6.39358e-09 0)
(0.341975 3.36567e-08 0)
(0.341975 4.54944e-08 0)
(0.341975 4.73195e-08 0)
(0.341975 4.30184e-08 0)
(0.341975 3.6929e-08 0)
(0.341975 3.18375e-08 0)
(0.341975 3.00333e-08 0)
(0.341975 3.43216e-08 0)
(0.341975 4.77579e-08 0)
(0.341975 7.42016e-08 0)
(0.341975 1.16355e-07 0)
(0.341975 1.69043e-07 0)
(0.341975 2.10658e-07 0)
(0.341975 1.71788e-07 0)
(0.390241 -9.0215e-09 0)
(0.390241 -2.84347e-08 0)
(0.390241 2.42317e-10 0)
(0.39024 3.33977e-08 0)
(0.39024 5.96804e-08 0)
(0.39024 7.57945e-08 0)
(0.39024 8.11568e-08 0)
(0.39024 7.72289e-08 0)
(0.39024 6.80087e-08 0)
(0.39024 5.62176e-08 0)
(0.39024 4.48768e-08 0)
(0.39024 3.57432e-08 0)
(0.39024 3.01403e-08 0)
(0.39024 2.98158e-08 0)
(0.39024 3.64016e-08 0)
(0.39024 5.1984e-08 0)
(0.39024 7.812e-08 0)
(0.39024 1.10384e-07 0)
(0.39024 1.33862e-07 0)
(0.39024 1.0833e-07 0)
(0.439362 1.16605e-07 0)
(0.439361 1.4244e-07 0)
(0.439361 1.68576e-07 0)
(0.439361 1.74996e-07 0)
(0.439361 1.67442e-07 0)
(0.43936 1.52036e-07 0)
(0.43936 1.32302e-07 0)
(0.43936 1.10327e-07 0)
(0.43936 8.87032e-08 0)
(0.43936 6.86943e-08 0)
(0.43936 5.17604e-08 0)
(0.43936 3.84044e-08 0)
(0.43936 2.87647e-08 0)
(0.43936 2.33498e-08 0)
(0.43936 2.21855e-08 0)
(0.43936 2.54157e-08 0)
(0.43936 3.34147e-08 0)
(0.43936 4.29025e-08 0)
(0.43936 4.66975e-08 0)
(0.439361 3.61678e-08 0)
(0.48936 2.40461e-07 0)
(0.489359 3.11721e-07 0)
(0.489359 3.36006e-07 0)
(0.489359 3.1582e-07 0)
(0.489359 2.7397e-07 0)
(0.489358 2.26371e-07 0)
(0.489358 1.81048e-07 0)
(0.489358 1.40799e-07 0)
(0.489358 1.06862e-07 0)
(0.489358 7.89038e-08 0)
(0.489358 5.67268e-08 0)
(0.489358 3.95025e-08 0)
(0.489358 2.61088e-08 0)
(0.489358 1.57863e-08 0)
(0.489358 6.951e-09 0)
(0.489358 -2.17557e-09 0)
(0.489358 -1.24213e-08 0)
(0.489358 -2.58773e-08 0)
(0.489358 -4.21253e-08 0)
(0.489359 -3.77579e-08 0)
(0.540235 3.5144e-07 0)
(0.540235 4.63925e-07 0)
(0.540235 4.85599e-07 0)
(0.540234 4.40395e-07 0)
(0.540234 3.66794e-07 0)
(0.540234 2.89618e-07 0)
(0.540234 2.21078e-07 0)
(0.540234 1.6453e-07 0)
(0.540234 1.19928e-07 0)
(0.540234 8.53501e-08 0)
(0.540234 5.90046e-08 0)
(0.540234 3.88077e-08 0)
(0.540234 2.24531e-08 0)
(0.540234 8.03464e-09 0)
(0.540234 -7.47629e-09 0)
(0.540234 -2.75907e-08 0)
(0.540234 -5.43326e-08 0)
(0.540234 -8.88858e-08 0)
(0.540234 -1.24358e-07 0)
(0.540235 -1.06728e-07 0)
(0.591967 4.39132e-07 0)
(0.591967 5.84289e-07 0)
(0.591967 6.01142e-07 0)
(0.591966 5.33978e-07 0)
(0.591966 4.34138e-07 0)
(0.591966 3.33235e-07 0)
(0.591966 2.46635e-07 0)
(0.591966 1.77887e-07 0)
(0.591966 1.2574e-07 0)
(0.591966 8.68461e-08 0)
(0.591966 5.80493e-08 0)
(0.591966 3.62363e-08 0)
(0.591966 1.81344e-08 0)
(0.591966 9.46642e-10 0)
(0.591966 -1.9485e-08 0)
(0.591966 -4.80722e-08 0)
(0.591966 -8.79685e-08 0)
(0.591966 -1.39972e-07 0)
(0.591966 -1.92625e-07 0)
(0.591967 -1.64606e-07 0)
(0.644512 4.94443e-07 0)
(0.644512 6.59628e-07 0)
(0.644512 6.68422e-07 0)
(0.644512 5.84041e-07 0)
(0.644512 4.66328e-07 0)
(0.644512 3.50491e-07 0)
(0.644512 2.53417e-07 0)
(0.644512 1.78346e-07 0)
(0.644512 1.22948e-07 0)
(0.644512 8.27726e-08 0)
(0.644512 5.36879e-08 0)
(0.644512 3.19107e-08 0)
(0.644512 1.35389e-08 0)
(0.644512 -4.75709e-09 0)
(0.644512 -2.78286e-08 0)
(0.644512 -6.15416e-08 0)
(0.644512 -1.10006e-07 0)
(0.644512 -1.74262e-07 0)
(0.644512 -2.40759e-07 0)
(0.644512 -2.06165e-07 0)
(0.697809 5.10227e-07 0)
(0.697809 6.79314e-07 0)
(0.697809 6.7671e-07 0)
(0.697809 5.81893e-07 0)
(0.697809 4.57246e-07 0)
(0.697809 3.37585e-07 0)
(0.697809 2.39359e-07 0)
(0.697809 1.64995e-07 0)
(0.697809 1.11317e-07 0)
(0.697809 7.32494e-08 0)
(0.697809 4.62061e-08 0)
(0.697809 2.61856e-08 0)
(0.697809 9.0797e-09 0)
(0.697809 -8.54557e-09 0)
(0.697809 -3.1724e-08 0)
(0.697809 -6.67628e-08 0)
(0.697809 -1.1839e-07 0)
(0.697809 -1.88435e-07 0)
(0.697809 -2.6405e-07 0)
(0.697809 -2.27334e-07 0)
(0.751775 4.81971e-07 0)
(0.751775 6.36504e-07 0)
(0.751775 6.20575e-07 0)
(0.751776 5.24456e-07 0)
(0.751776 4.05726e-07 0)
(0.751776 2.94596e-07 0)
(0.751776 2.05203e-07 0)
(0.751776 1.38838e-07 0)
(0.751776 9.18589e-08 0)
(0.751776 5.91683e-08 0)
(0.751776 3.63264e-08 0)
(0.751776 1.96112e-08 0)
(0.751776 5.15983e-09 0)
(0.751776 -1.01338e-08 0)
(0.751776 -3.09356e-08 0)
(0.751776 -6.34608e-08 0)
(0.751776 -1.12523e-07 0)
(0.751776 -1.8094e-07 0)
(0.751776 -2.59426e-07 0)
(0.751776 -2.25406e-07 0)
(0.806314 4.08122e-07 0)
(0.806314 5.29075e-07 0)
(0.806314 5.01139e-07 0)
(0.806315 4.15141e-07 0)
(0.806315 3.15976e-07 0)
(0.806315 2.25631e-07 0)
(0.806315 1.54494e-07 0)
(0.806315 1.02708e-07 0)
(0.806315 6.67147e-08 0)
(0.806315 4.20708e-08 0)
(0.806315 2.50986e-08 0)
(0.806316 1.28387e-08 0)
(0.806316 2.12012e-09 0)
(0.806316 -9.46237e-09 0)
(0.806316 -2.57237e-08 0)
(0.806315 -5.22232e-08 0)
(0.806315 -9.31181e-08 0)
(0.806315 -1.51798e-07 0)
(0.806315 -2.2511e-07 0)
(0.806315 -1.98916e-07 0)
(0.861313 2.94399e-07 0)
(0.861314 3.67722e-07 0)
(0.861314 3.34614e-07 0)
(0.861314 2.711e-07 0)
(0.861315 2.02921e-07 0)
(0.861315 1.42409e-07 0)
(0.861315 9.58773e-08 0)
(0.861315 6.27048e-08 0)
(0.861315 3.99845e-08 0)
(0.861315 2.4549e-08 0)
(0.861315 1.41413e-08 0)
(0.861315 6.95511e-09 0)
(0.861315 4.44253e-10 0)
(0.861315 -7.06098e-09 0)
(0.861315 -1.75726e-08 0)
(0.861315 -3.53106e-08 0)
(0.861315 -6.35539e-08 0)
(0.861315 -1.05334e-07 0)
(0.861315 -1.64029e-07 0)
(0.861315 -1.49384e-07 0)
(0.91665 1.56702e-07 0)
(0.916651 1.80597e-07 0)
(0.916651 1.52445e-07 0)
(0.916651 1.18947e-07 0)
(0.916651 8.67832e-08 0)
(0.916652 5.93509e-08 0)
(0.916652 3.90029e-08 0)
(0.916652 2.49385e-08 0)
(0.916652 1.55204e-08 0)
(0.916652 9.19656e-09 0)
(0.916652 5.0342e-09 0)
(0.916652 2.28007e-09 0)
(0.916652 -2.47552e-10 0)
(0.916652 -3.18465e-09 0)
(0.916652 -7.56612e-09 0)
(0.916652 -1.54894e-08 0)
(0.916652 -2.85317e-08 0)
(0.916652 -4.89919e-08 0)
(0.916652 -8.4268e-08 0)
(0.916651 -8.27639e-08 0)
(0.972193 4.5916e-08 0)
(0.972194 4.94735e-08 0)
(0.972194 3.83883e-08 0)
(0.972194 2.87628e-08 0)
(0.972194 2.03663e-08 0)
(0.972194 1.3453e-08 0)
(0.972194 8.62704e-09 0)
(0.972194 5.46351e-09 0)
(0.972194 3.32187e-09 0)
(0.972194 1.76787e-09 0)
(0.972194 8.20029e-10 0)
(0.972194 4.39853e-10 0)
(0.972194 -7.85763e-11 0)
(0.972194 -1.00194e-09 0)
(0.972194 -2.10924e-09 0)
(0.972194 -4.20105e-09 0)
(0.972194 -7.72937e-09 0)
(0.972194 -1.32536e-08 0)
(0.972194 -2.45838e-08 0)
(0.972194 -2.47224e-08 0)
)
;

boundaryField
{
    top
    {
        type            fixedValue;
        value           uniform (1 0 0);
    }
    bottom
    {
        type            fixedValue;
        value           uniform (0 0 0);
    }
    inlet
    {
        type            zeroGradient;
    }
    outlet
    {
        type            zeroGradient;
    }
    frontAndBack
    {
        type            empty;
    }
}


// ************************************************************************* //
