/*--------------------------------*- C++ -*----------------------------------*\
  =========                 |
  \\      /  F ield         | OpenFOAM: The Open Source CFD Toolbox
   \\    /   O peration     | Website:  https://openfoam.org
    \\  /    A nd           | Version:  9
     \\/     M anipulation  |
\*---------------------------------------------------------------------------*/
FoamFile
{
    format      ascii;
    class       volScalarField;
    location    "1.3";
    object      p;
}
// * * * * * * * * * * * * * * * * * * * * * * * * * * * * * * * * * * * * * //

dimensions      [0 2 -2 0 0 0 0];

internalField   nonuniform List<scalar> 
400
(
2.81988e-07
4.67344e-07
4.51898e-07
4.29827e-07
3.93595e-07
3.50688e-07
3.05991e-07
2.60518e-07
2.15025e-07
1.69896e-07
1.24925e-07
7.9823e-08
3.44894e-08
-1.10573e-08
-5.67699e-08
-1.02736e-07
-1.47773e-07
-1.8864e-07
-2.40245e-07
-1.5178e-07
2.67433e-07
4.45241e-07
4.28421e-07
4.15759e-07
3.85062e-07
3.45544e-07
3.03017e-07
2.58858e-07
2.14138e-07
1.69455e-07
1.24742e-07
7.98074e-08
3.46258e-08
-1.06909e-08
-5.59259e-08
-1.00925e-07
-1.43943e-07
-1.79863e-07
-2.34516e-07
-1.47886e-07
2.70395e-07
4.47195e-07
4.15319e-07
4.06724e-07
3.78993e-07
3.41535e-07
3.00547e-07
2.57398e-07
2.13298e-07
1.68984e-07
1.24494e-07
7.9716e-08
3.46778e-08
-1.04499e-08
-5.53464e-08
-9.97995e-08
-1.42001e-07
-1.75618e-07
-2.42063e-07
-1.53326e-07
2.80779e-07
4.66692e-07
4.12565e-07
4.02912e-07
3.75713e-07
3.38936e-07
2.98758e-07
2.56229e-07
2.12543e-07
1.68492e-07
1.24182e-07
7.95393e-08
3.46185e-08
-1.03891e-08
-5.51365e-08
-9.95119e-08
-1.42007e-07
-1.75922e-07
-2.57332e-07
-1.61744e-07
2.92152e-07
4.93699e-07
4.15163e-07
4.02046e-07
3.7411e-07
3.37216e-07
2.97394e-07
2.55226e-07
2.11818e-07
1.6797e-07
1.23814e-07
7.92927e-08
3.44621e-08
-1.04846e-08
-5.52212e-08
-9.98025e-08
-1.43184e-07
-1.78419e-07
-2.74409e-07
-1.69743e-07
3.02652e-07
5.22882e-07
4.20417e-07
4.02779e-07
3.73512e-07
3.36027e-07
2.96269e-07
2.54306e-07
2.11098e-07
1.67419e-07
1.23404e-07
7.89901e-08
3.4227e-08
-1.07008e-08
-5.55085e-08
-1.00433e-07
-1.44918e-07
-1.81685e-07
-2.90073e-07
-1.7625e-07
3.11916e-07
5.51287e-07
4.26787e-07
4.04284e-07
3.73452e-07
3.35134e-07
2.95266e-07
2.53421e-07
2.10374e-07
1.66848e-07
1.22964e-07
7.86483e-08
3.39365e-08
-1.09952e-08
-5.5907e-08
-1.01191e-07
-1.46767e-07
-1.84854e-07
-3.0268e-07
-1.81077e-07
3.19575e-07
5.7649e-07
4.33024e-07
4.05837e-07
3.73508e-07
3.3432e-07
2.94281e-07
2.52525e-07
2.09635e-07
1.66263e-07
1.22508e-07
7.82865e-08
3.36203e-08
-1.13151e-08
-5.6314e-08
-1.01874e-07
-1.48328e-07
-1.87279e-07
-3.11091e-07
-1.84044e-07
3.25399e-07
5.96608e-07
4.38118e-07
4.06878e-07
3.73348e-07
3.33426e-07
2.93244e-07
2.51595e-07
2.08878e-07
1.65671e-07
1.22052e-07
7.79272e-08
3.33141e-08
-1.16031e-08
-5.66294e-08
-1.023e-07
-1.49279e-07
-1.88483e-07
-3.14659e-07
-1.85101e-07
3.29215e-07
6.10261e-07
4.41376e-07
4.07047e-07
3.72778e-07
3.32372e-07
2.92135e-07
2.50635e-07
2.08118e-07
1.65089e-07
1.21612e-07
7.7593e-08
3.30503e-08
-1.18079e-08
-5.67704e-08
-1.02337e-07
-1.49395e-07
-1.88191e-07
-3.13145e-07
-1.84261e-07
3.30899e-07
6.16555e-07
4.4241e-07
4.06205e-07
3.71744e-07
3.31167e-07
2.90986e-07
2.49679e-07
2.0738e-07
1.64538e-07
1.21208e-07
7.73036e-08
3.2855e-08
-1.18926e-08
-5.66843e-08
-1.01913e-07
-1.4857e-07
-1.86318e-07
-3.06666e-07
-1.81606e-07
3.30339e-07
6.15052e-07
4.41139e-07
4.04419e-07
3.70329e-07
3.29901e-07
2.89879e-07
2.48788e-07
2.06709e-07
1.64046e-07
1.20858e-07
7.70736e-08
3.27426e-08
-1.18421e-08
-5.63574e-08
-1.01026e-07
-1.46822e-07
-1.82952e-07
-2.95642e-07
-1.7726e-07
3.27433e-07
6.05795e-07
4.37791e-07
4.01952e-07
3.68732e-07
3.28727e-07
2.88924e-07
2.48039e-07
2.06151e-07
1.63641e-07
1.20577e-07
7.69103e-08
3.27136e-08
-1.16666e-08
-5.58203e-08
-9.97494e-08
-1.44287e-07
-1.78352e-07
-2.80771e-07
-1.71394e-07
3.22149e-07
5.89392e-07
4.32931e-07
3.99256e-07
3.67253e-07
3.27842e-07
2.88251e-07
2.47514e-07
2.05756e-07
1.63351e-07
1.20378e-07
7.6813e-08
3.27533e-08
-1.14024e-08
-5.5148e-08
-9.82316e-08
-1.41226e-07
-1.7294e-07
-2.63018e-07
-1.64244e-07
3.14502e-07
5.67085e-07
4.27486e-07
3.96938e-07
3.66259e-07
3.27453e-07
2.87982e-07
2.47283e-07
2.05563e-07
1.63193e-07
1.20264e-07
7.67726e-08
3.2834e-08
-1.11085e-08
-5.44545e-08
-9.66864e-08
-1.38011e-07
-1.67296e-07
-2.43623e-07
-1.56118e-07
3.04706e-07
5.4088e-07
4.2267e-07
3.95709e-07
3.66122e-07
3.2775e-07
2.88204e-07
2.47388e-07
2.05591e-07
1.63174e-07
1.20233e-07
7.6773e-08
3.29184e-08
-1.08589e-08
-5.38786e-08
-9.53719e-08
-1.35097e-07
-1.62128e-07
-2.24089e-07
-1.47417e-07
2.92926e-07
5.13538e-07
4.2006e-07
3.96282e-07
3.67189e-07
3.28858e-07
2.88958e-07
2.47835e-07
2.05834e-07
1.63287e-07
1.20273e-07
7.67931e-08
3.29642e-08
-1.07344e-08
-5.35687e-08
-9.45686e-08
-1.33004e-07
-1.58289e-07
-2.06187e-07
-1.38575e-07
2.80877e-07
4.90461e-07
4.22307e-07
3.99787e-07
3.69901e-07
3.30943e-07
2.90284e-07
2.48625e-07
2.06286e-07
1.63521e-07
1.20371e-07
7.68087e-08
3.29215e-08
-1.08317e-08
-5.37015e-08
-9.46192e-08
-1.32436e-07
-1.57147e-07
-1.92852e-07
-1.30776e-07
2.74049e-07
4.81761e-07
4.34319e-07
4.0809e-07
3.75042e-07
3.34282e-07
2.92276e-07
2.49786e-07
2.06956e-07
1.63885e-07
1.2053e-07
7.68085e-08
3.27546e-08
-1.12328e-08
-5.44577e-08
-9.59291e-08
-1.34328e-07
-1.60897e-07
-1.89265e-07
-1.27687e-07
2.82539e-07
4.96329e-07
4.56151e-07
4.209e-07
3.82238e-07
3.3854e-07
2.94706e-07
2.51179e-07
2.07762e-07
1.64332e-07
1.20728e-07
7.67919e-08
3.24871e-08
-1.18772e-08
-5.57326e-08
-9.8329e-08
-1.38584e-07
-1.69466e-07
-1.98596e-07
-1.34798e-07
)
;

boundaryField
{
    top
    {
        type            zeroGradient;
    }
    bottom
    {
        type            zeroGradient;
    }
    inlet
    {
        type            fixedValue;
        value           uniform 0;
    }
    outlet
    {
        type            fixedValue;
        value           uniform 0;
    }
    frontAndBack
    {
        type            empty;
    }
}


// ************************************************************************* //
