/*--------------------------------*- C++ -*----------------------------------*\
  =========                 |
  \\      /  F ield         | OpenFOAM: The Open Source CFD Toolbox
   \\    /   O peration     | Website:  https://openfoam.org
    \\  /    A nd           | Version:  9
     \\/     M anipulation  |
\*---------------------------------------------------------------------------*/
FoamFile
{
    format      ascii;
    class       surfaceScalarField;
    location    "1.3";
    object      phi;
}
// * * * * * * * * * * * * * * * * * * * * * * * * * * * * * * * * * * * * * //

dimensions      [0 3 -1 0 0 0 0];

internalField   nonuniform List<scalar> 
760
(
1.2497e-06
-1.72701e-12
1.2497e-06
-1.43724e-12
1.2497e-06
-6.84584e-13
1.2497e-06
-3.89204e-13
1.2497e-06
-2.23359e-13
1.2497e-06
-1.22694e-13
1.2497e-06
-6.71705e-14
1.2497e-06
-3.50991e-14
1.2497e-06
-1.70505e-14
1.2497e-06
-7.669e-15
1.2497e-06
-2.76795e-15
1.2497e-06
2.47446e-16
1.2497e-06
3.01336e-15
1.2497e-06
7.49902e-15
1.2497e-06
1.75203e-14
1.2497e-06
4.39671e-14
1.2497e-06
1.0461e-13
1.2497e-06
2.33795e-13
1.2497e-06
7.3591e-13
8.49546e-13
3.74911e-06
-4.15734e-12
3.74911e-06
-3.89584e-12
3.74911e-06
-2.22724e-12
3.74911e-06
-1.32536e-12
3.74911e-06
-7.81929e-13
3.74911e-06
-4.44687e-13
3.74911e-06
-2.48135e-13
3.74911e-06
-1.33309e-13
3.74911e-06
-6.7504e-14
3.74911e-06
-3.11361e-14
3.74911e-06
-1.11681e-14
3.74911e-06
8.50975e-16
3.74911e-06
1.12774e-14
3.74911e-06
2.76262e-14
3.74911e-06
6.33498e-14
3.74911e-06
1.49499e-13
3.74911e-06
3.41778e-13
3.74911e-06
7.33176e-13
3.74911e-06
1.78607e-12
1.88763e-12
6.24854e-06
-6.32301e-12
6.24854e-06
-6.34367e-12
6.24854e-06
-4.03217e-12
6.24854e-06
-2.49653e-12
6.24855e-06
-1.51239e-12
6.24855e-06
-8.80911e-13
6.24855e-06
-4.99375e-13
6.24855e-06
-2.72513e-13
6.24855e-06
-1.40613e-13
6.24855e-06
-6.61102e-14
6.24855e-06
-2.45932e-14
6.24855e-06
1.01954e-16
6.24855e-06
2.05806e-14
6.24855e-06
5.13379e-14
6.24855e-06
1.16831e-13
6.24855e-06
2.67686e-13
6.24855e-06
5.92581e-13
6.24855e-06
1.22428e-12
6.24854e-06
2.59189e-12
2.59384e-12
8.74801e-06
-7.94444e-12
8.74801e-06
-8.27447e-12
8.74801e-06
-5.63161e-12
8.74801e-06
-3.61294e-12
8.74801e-06
-2.2415e-12
8.74801e-06
-1.33146e-12
8.74801e-06
-7.65082e-13
8.74801e-06
-4.22406e-13
8.74801e-06
-2.2052e-13
8.74801e-06
-1.05098e-13
8.74801e-06
-4.05221e-14
8.74801e-06
-2.87894e-15
8.74801e-06
2.64977e-14
8.74801e-06
6.8187e-14
8.74801e-06
1.55076e-13
8.74801e-06
3.49845e-13
8.74801e-06
7.58799e-13
8.74801e-06
1.51497e-12
8.74801e-06
2.96074e-12
2.87142e-12
1.12475e-05
-8.85612e-12
1.12475e-05
-9.42994e-12
1.12475e-05
-6.737e-12
1.12475e-05
-4.45113e-12
1.12475e-05
-2.82004e-12
1.12475e-05
-1.70308e-12
1.12475e-05
-9.89972e-13
1.12475e-05
-5.51263e-13
1.12475e-05
-2.89832e-13
1.12475e-05
-1.39284e-13
1.12475e-05
-5.53414e-14
1.12475e-05
-8.03154e-15
1.12475e-05
2.56619e-14
1.12475e-05
6.97885e-14
1.12475e-05
1.60572e-13
1.12475e-05
3.62677e-13
1.12475e-05
7.81834e-13
1.12475e-05
1.52605e-12
1.12475e-05
2.84298e-12
2.69462e-12
1.37471e-05
-9.01398e-12
1.37471e-05
-9.72221e-12
1.37471e-05
-7.19667e-12
1.37471e-05
-4.8699e-12
1.37471e-05
-3.14095e-12
1.37471e-05
-1.92352e-12
1.37471e-05
-1.12854e-12
1.37471e-05
-6.31936e-13
1.37471e-05
-3.33108e-13
1.37471e-05
-1.6044e-13
1.37471e-05
-6.52312e-14
1.37471e-05
-1.44413e-14
1.37471e-05
1.65698e-14
1.37471e-05
5.17699e-14
1.37471e-05
1.24897e-13
1.37471e-05
2.92411e-13
1.37471e-05
6.45021e-13
1.37471e-05
1.25196e-12
1.37471e-05
2.28393e-12
2.11145e-12
1.62468e-05
-8.44802e-12
1.62468e-05
-9.169e-12
1.62468e-05
-6.97011e-12
1.62468e-05
-4.807e-12
1.62468e-05
-3.14749e-12
1.62468e-05
-1.94982e-12
1.62468e-05
-1.15184e-12
1.62468e-05
-6.463e-13
1.62468e-05
-3.39653e-13
1.62468e-05
-1.62585e-13
1.62468e-05
-6.70703e-14
1.62468e-05
-2.06654e-14
1.62468e-05
-2.75452e-16
1.62468e-05
1.43356e-14
1.62468e-05
4.90011e-14
1.62468e-05
1.43798e-13
1.62468e-05
3.6396e-13
1.62468e-05
7.36813e-13
1.62468e-05
1.37392e-12
1.20356e-12
1.87465e-05
-7.24966e-12
1.87465e-05
-7.86769e-12
1.87465e-05
-6.10299e-12
1.87465e-05
-4.27258e-12
1.87465e-05
-2.83384e-12
1.87465e-05
-1.77218e-12
1.87465e-05
-1.05115e-12
1.87465e-05
-5.8812e-13
1.87465e-05
-3.05457e-13
1.87465e-05
-1.43238e-13
1.87465e-05
-5.91992e-14
1.87465e-05
-2.51923e-14
1.87465e-05
-2.26675e-14
1.87465e-05
-3.82697e-14
1.87465e-05
-5.81483e-14
1.87465e-05
-6.42289e-14
1.87465e-05
-2.27882e-14
1.87465e-05
5.33612e-14
1.87465e-05
2.29848e-13
7.66015e-14
2.12463e-05
-5.55203e-12
2.12463e-05
-5.9709e-12
2.12463e-05
-4.7084e-12
2.12463e-05
-3.33759e-12
2.12463e-05
-2.24109e-12
2.12463e-05
-1.41311e-12
2.12463e-05
-8.38581e-13
2.12463e-05
-4.639e-13
2.12463e-05
-2.3396e-13
2.12463e-05
-1.04014e-13
2.12463e-05
-4.19006e-14
2.12463e-05
-2.68865e-14
2.12463e-05
-4.73377e-14
2.12463e-05
-9.88928e-14
2.12463e-05
-1.8208e-13
2.12463e-05
-3.0352e-13
2.12463e-05
-4.6372e-13
2.12463e-05
-7.1139e-13
2.12463e-05
-1.02266e-12
-1.15525e-12
2.37462e-05
-3.52043e-12
2.37462e-05
-3.67185e-12
2.37462e-05
-2.94928e-12
2.37462e-05
-2.1211e-12
2.37462e-05
-1.44898e-12
2.37462e-05
-9.2294e-13
2.37462e-05
-5.447e-13
2.37462e-05
-2.91707e-13
2.37462e-05
-1.35514e-13
2.37462e-05
-5.04567e-14
2.37462e-05
-1.74722e-14
2.37462e-05
-2.53238e-14
2.37462e-05
-7.06576e-14
2.37462e-05
-1.58952e-13
2.37462e-05
-3.05617e-13
2.37462e-05
-5.41947e-13
2.37462e-05
-9.02592e-13
2.37462e-05
-1.46771e-12
2.37462e-05
-2.25869e-12
-2.37624e-12
2.62462e-05
-1.3408e-12
2.62462e-05
-1.19093e-12
2.62462e-05
-1.02275e-12
2.62462e-05
-7.75429e-13
2.62462e-05
-5.64617e-13
2.62462e-05
-3.71977e-13
2.62462e-05
-2.13492e-13
2.62462e-05
-9.80966e-14
2.62462e-05
-2.56028e-14
2.62462e-05
8.91056e-15
2.62462e-05
1.01439e-14
2.62462e-05
-2.08992e-14
2.62462e-05
-8.93103e-14
2.62462e-05
-2.09903e-13
2.62462e-05
-4.11652e-13
2.62462e-05
-7.4803e-13
2.62462e-05
-1.28545e-12
2.62462e-05
-2.13136e-12
2.62462e-05
-3.36203e-12
-3.47663e-12
2.87463e-05
7.9058e-13
2.87463e-05
1.2363e-12
2.87463e-05
8.55652e-13
2.87463e-05
5.30203e-13
2.87463e-05
2.91384e-13
2.87463e-05
1.59906e-13
2.87463e-05
1.04769e-13
2.87463e-05
8.64934e-14
2.87463e-05
7.79682e-14
2.87463e-05
6.41858e-14
2.87463e-05
3.61322e-14
2.87463e-05
-1.46962e-14
2.87463e-05
-1.0079e-13
2.87463e-05
-2.44535e-13
2.87463e-05
-4.85558e-13
2.87463e-05
-8.94873e-13
2.87463e-05
-1.56614e-12
2.87463e-05
-2.63008e-12
2.87463e-05
-4.23068e-12
-4.3582e-12
3.12465e-05
2.6771e-12
3.12465e-05
3.37133e-12
3.12465e-05
2.46923e-12
3.12465e-05
1.62797e-12
3.12465e-05
1.00115e-12
3.12465e-05
5.95497e-13
3.12465e-05
3.62058e-13
3.12465e-05
2.33256e-13
3.12465e-05
1.58486e-13
3.12465e-05
1.06074e-13
3.12465e-05
5.58382e-14
3.12465e-05
-8.15541e-15
3.12465e-05
-1.03696e-13
3.12465e-05
-2.57977e-13
3.12465e-05
-5.17116e-13
3.12465e-05
-9.63291e-13
3.12465e-05
-1.71072e-12
3.12465e-05
-2.90866e-12
3.12465e-05
-4.7816e-12
-4.93909e-12
3.37468e-05
4.13503e-12
3.37468e-05
4.98757e-12
3.37468e-05
3.6196e-12
3.37468e-05
2.37266e-12
3.37468e-05
1.46704e-12
3.37468e-05
8.73444e-13
3.37468e-05
5.21411e-13
3.37468e-05
3.20693e-13
3.37468e-05
2.03769e-13
3.37468e-05
1.27906e-13
3.37468e-05
6.58477e-14
3.37468e-05
-2.63984e-15
3.37468e-05
-9.78395e-14
3.37468e-05
-2.48372e-13
3.37468e-05
-5.01923e-13
3.37468e-05
-9.44177e-13
3.37468e-05
-1.70106e-12
3.37468e-05
-2.9334e-12
3.37468e-05
-4.95527e-12
-5.15857e-12
3.62471e-05
5.00252e-12
3.62471e-05
5.88666e-12
3.62471e-05
4.15231e-12
3.62471e-05
2.66474e-12
3.62471e-05
1.63031e-12
3.62471e-05
9.60539e-13
3.62471e-05
5.64921e-13
3.62471e-05
3.39356e-13
3.62471e-05
2.08989e-13
3.62471e-05
1.27236e-13
3.62471e-05
6.48658e-14
3.62471e-05
9.65359e-16
3.62471e-05
-8.42029e-14
3.62471e-05
-2.17222e-13
3.62471e-05
-4.42236e-13
3.62471e-05
-8.40177e-13
3.62471e-05
-1.5377e-12
3.62471e-05
-2.69673e-12
3.62471e-05
-4.72036e-12
-4.98091e-12
3.87475e-05
5.16517e-12
3.87475e-05
5.92876e-12
3.87475e-05
3.98717e-12
3.87475e-05
2.47735e-12
3.87475e-05
1.4872e-12
3.87475e-05
8.61776e-13
3.87475e-05
4.9892e-13
3.87475e-05
2.94714e-13
3.87475e-05
1.78114e-13
3.87475e-05
1.06631e-13
3.87475e-05
5.41374e-14
3.87475e-05
2.48626e-15
3.87475e-05
-6.48358e-14
3.87475e-05
-1.69397e-13
3.87475e-05
-3.47263e-13
3.87475e-05
-6.66621e-13
3.87475e-05
-1.24253e-12
3.87475e-05
-2.22238e-12
3.87475e-05
-4.08255e-12
-4.40317e-12
4.1248e-05
4.5645e-12
4.1248e-05
5.06363e-12
4.1248e-05
3.16363e-12
4.1248e-05
1.87979e-12
4.1248e-05
1.1017e-12
4.1248e-05
6.24157e-13
4.1248e-05
3.55161e-13
4.1248e-05
2.06884e-13
4.1248e-05
1.23523e-13
4.1248e-05
7.33098e-14
4.1248e-05
3.72602e-14
4.1248e-05
2.42818e-15
4.1248e-05
-4.27172e-14
4.1248e-05
-1.12854e-13
4.1248e-05
-2.32825e-13
4.1248e-05
-4.5177e-13
4.1248e-05
-8.6062e-13
4.1248e-05
-1.5727e-12
4.1248e-05
-3.09433e-12
-3.46175e-12
4.37485e-05
3.26628e-12
4.37485e-05
3.41818e-12
4.37485e-05
1.88892e-12
4.37485e-05
1.06046e-12
4.37485e-05
6.05016e-13
4.37485e-05
3.32858e-13
4.37485e-05
1.856e-13
4.37485e-05
1.069e-13
4.37485e-05
6.3391e-14
4.37485e-05
3.7612e-14
4.37485e-05
1.93336e-14
4.37485e-05
1.64116e-15
4.37485e-05
-2.16266e-14
4.37485e-05
-5.79704e-14
4.37485e-05
-1.20338e-13
4.37485e-05
-2.35993e-13
4.37485e-05
-4.62281e-13
4.37485e-05
-8.58839e-13
4.37485e-05
-1.88297e-12
-2.25309e-12
4.62491e-05
1.44341e-12
4.62491e-05
1.38386e-12
4.62491e-05
6.17486e-13
4.62491e-05
3.17653e-13
4.62491e-05
1.77952e-13
4.62491e-05
9.33859e-14
4.62491e-05
5.06571e-14
4.62491e-05
2.89344e-14
4.62491e-05
1.71949e-14
4.62491e-05
1.03835e-14
4.62491e-05
5.61154e-15
4.62491e-05
8.269e-16
4.62491e-05
-5.90869e-15
4.62491e-05
-1.65708e-14
4.62491e-05
-3.4631e-14
4.62491e-05
-6.86442e-14
4.62491e-05
-1.40132e-13
4.62491e-05
-2.59355e-13
4.62491e-05
-6.88683e-13
-9.32642e-13
4.87497e-05
4.87497e-05
4.87497e-05
4.87497e-05
4.87497e-05
4.87497e-05
4.87497e-05
4.87497e-05
4.87497e-05
4.87497e-05
4.87497e-05
4.87497e-05
4.87497e-05
4.87497e-05
4.87497e-05
4.87497e-05
4.87497e-05
4.87497e-05
4.87497e-05
)
;

boundaryField
{
    top
    {
        type            calculated;
        value           uniform 0;
    }
    bottom
    {
        type            calculated;
        value           uniform 0;
    }
    inlet
    {
        type            calculated;
        value           nonuniform List<scalar> 
20
(
-1.2497e-06
-3.7491e-06
-6.24854e-06
-8.74801e-06
-1.12475e-05
-1.37471e-05
-1.62468e-05
-1.87465e-05
-2.12463e-05
-2.37462e-05
-2.62462e-05
-2.87463e-05
-3.12465e-05
-3.37468e-05
-3.62471e-05
-3.87475e-05
-4.1248e-05
-4.37485e-05
-4.62491e-05
-4.87497e-05
)
;
    }
    outlet
    {
        type            calculated;
        value           nonuniform List<scalar> 
20
(
1.2497e-06
3.74911e-06
6.24854e-06
8.74801e-06
1.12475e-05
1.37471e-05
1.62468e-05
1.87465e-05
2.12463e-05
2.37462e-05
2.62462e-05
2.87463e-05
3.12465e-05
3.37468e-05
3.62471e-05
3.87475e-05
4.1248e-05
4.37485e-05
4.62491e-05
4.87497e-05
)
;
    }
    frontAndBack
    {
        type            empty;
        value           nonuniform List<scalar> 0();
    }
}


// ************************************************************************* //
