/*--------------------------------*- C++ -*----------------------------------*\
  =========                 |
  \\      /  F ield         | OpenFOAM: The Open Source CFD Toolbox
   \\    /   O peration     | Website:  https://openfoam.org
    \\  /    A nd           | Version:  9
     \\/     M anipulation  |
\*---------------------------------------------------------------------------*/
FoamFile
{
    format      ascii;
    class       volVectorField;
    location    "1.3";
    object      U;
}
// * * * * * * * * * * * * * * * * * * * * * * * * * * * * * * * * * * * * * //

dimensions      [0 1 -1 0 0 0 0];

internalField   nonuniform List<vector> 
400
(
(0.0249939 -8.45075e-09 0)
(0.024994 -6.75877e-09 0)
(0.024994 -2.8382e-09 0)
(0.024994 -1.51144e-09 0)
(0.024994 -8.33188e-10 0)
(0.024994 -4.40985e-10 0)
(0.024994 -2.37324e-10 0)
(0.024994 -1.18387e-10 0)
(0.024994 -5.30135e-11 0)
(0.024994 -2.23029e-11 0)
(0.024994 -7.73433e-12 0)
(0.024994 1.64579e-12 0)
(0.024994 1.15014e-11 0)
(0.024994 2.8198e-11 0)
(0.024994 6.65883e-11 0)
(0.024994 1.76406e-10 0)
(0.024994 4.40019e-10 0)
(0.024994 1.04972e-09 0)
(0.024994 3.70876e-09 0)
(0.024994 4.34971e-09 0)
(0.0749821 -2.90993e-08 0)
(0.0749822 -2.58694e-08 0)
(0.0749822 -1.35019e-08 0)
(0.0749822 -7.74836e-09 0)
(0.0749822 -4.4735e-09 0)
(0.0749822 -2.48555e-09 0)
(0.0749823 -1.36502e-09 0)
(0.0749823 -7.20362e-10 0)
(0.0749823 -3.55488e-10 0)
(0.0749823 -1.59409e-10 0)
(0.0749823 -5.44268e-11 0)
(0.0749823 8.98828e-12 0)
(0.0749823 6.62298e-11 0)
(0.0749823 1.59333e-10 0)
(0.0749823 3.68132e-10 0)
(0.0749823 8.95446e-10 0)
(0.0749823 2.10107e-09 0)
(0.0749822 4.67266e-09 0)
(0.0749822 1.26948e-08 0)
(0.0749822 1.39374e-08 0)
(0.124971 -5.29222e-08 0)
(0.124971 -5.13954e-08 0)
(0.124971 -3.104e-08 0)
(0.124971 -1.87781e-08 0)
(0.124971 -1.11979e-08 0)
(0.124971 -6.43572e-09 0)
(0.124971 -3.61529e-09 0)
(0.124971 -1.95487e-09 0)
(0.124971 -9.98236e-10 0)
(0.124971 -4.64493e-10 0)
(0.124971 -1.69013e-10 0)
(0.124971 8.96512e-12 0)
(0.124971 1.61988e-10 0)
(0.124971 3.98697e-10 0)
(0.124971 9.09373e-10 0)
(0.124971 2.10991e-09 0)
(0.124971 4.7407e-09 0)
(0.124971 9.99268e-09 0)
(0.124971 2.24712e-08 0)
(0.124971 2.31118e-08 0)
(0.17496 -7.28168e-08 0)
(0.17496 -7.44732e-08 0)
(0.17496 -4.9103e-08 0)
(0.17496 -3.09243e-08 0)
(0.17496 -1.89383e-08 0)
(0.17496 -1.11293e-08 0)
(0.17496 -6.34649e-09 0)
(0.17496 -3.48292e-09 0)
(0.17496 -1.80858e-09 0)
(0.17496 -8.56594e-10 0)
(0.17496 -3.23873e-10 0)
(0.17496 -8.40752e-12 0)
(0.17496 2.48219e-10 0)
(0.17496 6.25645e-10 0)
(0.17496 1.41975e-09 0)
(0.17496 3.21775e-09 0)
(0.17496 7.0328e-09 0)
(0.17496 1.4257e-08 0)
(0.17496 2.87749e-08 0)
(0.17496 2.83897e-08 0)
(0.224951 -8.58623e-08 0)
(0.224951 -9.04814e-08 0)
(0.224951 -6.32589e-08 0)
(0.224951 -4.11992e-08 0)
(0.224951 -2.58243e-08 0)
(0.224951 -1.54648e-08 0)
(0.224951 -8.93671e-09 0)
(0.224951 -4.95683e-09 0)
(0.224951 -2.59937e-09 0)
(0.224951 -1.24565e-09 0)
(0.224951 -4.87765e-10 0)
(0.224951 -5.05755e-11 0)
(0.224951 2.79872e-10 0)
(0.224951 7.34538e-10 0)
(0.224951 1.67252e-09 0)
(0.224951 3.75522e-09 0)
(0.224951 8.08189e-09 0)
(0.224951 1.58998e-08 0)
(0.224951 3.01169e-08 0)
(0.224951 2.89206e-08 0)
(0.274942 -9.12185e-08 0)
(0.274942 -9.78211e-08 0)
(0.274942 -7.13264e-08 0)
(0.274942 -4.77407e-08 0)
(0.274942 -3.05297e-08 0)
(0.274942 -1.85733e-08 0)
(0.274942 -1.08508e-08 0)
(0.274942 -6.06349e-09 0)
(0.274942 -3.19627e-09 0)
(0.274942 -1.5408e-09 0)
(0.274942 -6.20418e-10 0)
(0.274942 -1.11708e-10 0)
(0.274942 2.31043e-10 0)
(0.274942 6.56977e-10 0)
(0.274942 1.52977e-09 0)
(0.274942 3.47715e-09 0)
(0.274942 7.51038e-09 0)
(0.274942 1.45345e-08 0)
(0.274942 2.6578e-08 0)
(0.274942 2.49515e-08 0)
(0.324935 -8.90191e-08 0)
(0.324935 -9.63801e-08 0)
(0.324935 -7.24819e-08 0)
(0.324935 -4.95847e-08 0)
(0.324935 -3.22469e-08 0)
(0.324935 -1.98754e-08 0)
(0.324935 -1.17097e-08 0)
(0.324935 -6.57087e-09 0)
(0.324935 -3.46482e-09 0)
(0.324935 -1.66855e-09 0)
(0.324935 -6.85531e-10 0)
(0.324935 -1.79069e-10 0)
(0.324935 9.73756e-11 0)
(0.324935 3.7313e-10 0)
(0.324935 9.57885e-10 0)
(0.324935 2.35066e-09 0)
(0.324935 5.34971e-09 0)
(0.324935 1.04396e-08 0)
(0.324935 1.89862e-08 0)
(0.324935 1.72582e-08 0)
(0.37493 -7.99146e-08 0)
(0.37493 -8.68109e-08 0)
(0.37493 -6.6819e-08 0)
(0.37493 -4.6499e-08 0)
(0.37493 -3.06696e-08 0)
(0.37493 -1.91049e-08 0)
(0.37493 -1.13202e-08 0)
(0.37493 -6.35265e-09 0)
(0.37493 -3.32802e-09 0)
(0.37493 -1.58406e-09 0)
(0.37493 -6.57409e-10 0)
(0.37493 -2.36483e-10 0)
(0.37493 -1.06183e-10 0)
(0.37493 -9.21497e-11 0)
(0.37493 1.21295e-11 0)
(0.37493 5.07183e-10 0)
(0.37493 1.8971e-09 0)
(0.37493 4.24896e-09 0)
(0.37493 8.42747e-09 0)
(0.37493 6.80815e-09 0)
(0.424926 -6.50584e-08 0)
(0.424926 -7.04046e-08 0)
(0.424926 -5.51712e-08 0)
(0.424926 -3.89167e-08 0)
(0.424926 -2.59877e-08 0)
(0.424926 -1.63308e-08 0)
(0.424926 -9.70084e-09 0)
(0.424926 -5.41015e-09 0)
(0.424926 -2.78239e-09 0)
(0.424926 -1.28225e-09 0)
(0.424926 -5.28337e-10 0)
(0.424926 -2.6962e-10 0)
(0.424926 -3.50416e-10 0)
(0.424926 -6.78387e-10 0)
(0.424926 -1.18341e-09 0)
(0.424926 -1.80509e-09 0)
(0.424926 -2.37512e-09 0)
(0.424926 -3.20913e-09 0)
(0.424926 -3.85458e-09 0)
(0.424926 -5.27423e-09 0)
(0.474924 -4.59676e-08 0)
(0.474924 -4.89236e-08 0)
(0.474924 -3.89581e-08 0)
(0.474924 -2.7821e-08 0)
(0.474924 -1.88289e-08 0)
(0.474924 -1.19323e-08 0)
(0.474924 -7.07409e-09 0)
(0.474924 -3.87131e-09 0)
(0.474924 -1.89966e-09 0)
(0.474924 -8.00242e-10 0)
(0.474924 -3.11551e-10 0)
(0.474924 -2.70097e-10 0)
(0.474924 -5.98945e-10 0)
(0.474924 -1.30316e-09 0)
(0.474924 -2.46347e-09 0)
(0.474924 -4.27253e-09 0)
(0.474924 -6.90981e-09 0)
(0.474924 -1.10273e-08 0)
(0.474924 -1.65866e-08 0)
(0.474924 -1.78216e-08 0)
(0.524924 -2.44278e-08 0)
(0.524924 -2.44695e-08 0)
(0.524924 -2.00191e-08 0)
(0.524924 -1.46077e-08 0)
(0.524924 -1.01588e-08 0)
(0.524924 -6.53543e-09 0)
(0.524924 -3.82787e-09 0)
(0.524924 -1.96891e-09 0)
(0.524924 -8.14788e-10 0)
(0.524924 -2.11605e-10 0)
(0.524924 -3.97225e-11 0)
(0.524924 -2.37834e-10 0)
(0.524924 -8.15664e-10 0)
(0.524924 -1.87742e-09 0)
(0.524924 -3.65023e-09 0)
(0.524924 -6.56655e-09 0)
(0.524924 -1.11405e-08 0)
(0.524924 -1.83178e-08 0)
(0.524924 -2.85451e-08 0)
(0.524924 -2.96893e-08 0)
(0.574926 -2.37601e-09 0)
(0.574926 6.46492e-10 0)
(0.574926 -4.59034e-10 0)
(0.574926 -9.27217e-10 0)
(0.574926 -1.15374e-09 0)
(0.574926 -9.19459e-10 0)
(0.574926 -4.53312e-10 0)
(0.574926 -7.65442e-13 0)
(0.574926 2.97816e-10 0)
(0.574926 3.86921e-10 0)
(0.574926 2.41005e-10 0)
(0.574926 -1.80889e-10 0)
(0.574926 -9.70576e-10 0)
(0.574926 -2.31963e-09 0)
(0.574926 -4.57976e-09 0)
(0.574926 -8.38666e-09 0)
(0.574926 -1.45546e-08 0)
(0.574926 -2.42836e-08 0)
(0.574926 -3.86257e-08 0)
(0.574926 -3.98244e-08 0)
(0.62493 1.81921e-08 0)
(0.62493 2.40185e-08 0)
(0.62493 1.75157e-08 0)
(0.62493 1.14859e-08 0)
(0.62493 6.95163e-09 0)
(0.62493 4.09786e-09 0)
(0.62493 2.53589e-09 0)
(0.62493 1.72246e-09 0)
(0.62493 1.25669e-09 0)
(0.62493 8.94138e-10 0)
(0.62493 4.80496e-10 0)
(0.62493 -1.12956e-10 0)
(0.62493 -1.04377e-09 0)
(0.62493 -2.56744e-09 0)
(0.62493 -5.12387e-09 0)
(0.62493 -9.49595e-09 0)
(0.62493 -1.67421e-08 0)
(0.62493 -2.82757e-08 0)
(0.62493 -4.58907e-08 0)
(0.62493 -4.73139e-08 0)
(0.674935 3.53488e-08 0)
(0.674935 4.32836e-08 0)
(0.674935 3.17757e-08 0)
(0.674935 2.10126e-08 0)
(0.674935 1.30344e-08 0)
(0.674935 7.79119e-09 0)
(0.674935 4.69303e-09 0)
(0.674935 2.93567e-09 0)
(0.674935 1.90914e-09 0)
(0.674935 1.22546e-09 0)
(0.674935 6.35783e-10 0)
(0.674935 -4.92492e-11 0)
(0.674935 -1.02737e-09 0)
(0.674935 -2.58618e-09 0)
(0.674935 -5.20703e-09 0)
(0.674935 -9.74842e-09 0)
(0.674935 -1.74352e-08 0)
(0.674935 -2.98392e-08 0)
(0.674935 -4.96172e-08 0)
(0.674935 -5.14346e-08 0)
(0.724942 4.73275e-08 0)
(0.724942 5.62664e-08 0)
(0.724942 4.04945e-08 0)
(0.724942 2.63691e-08 0)
(0.724942 1.62692e-08 0)
(0.724942 9.65885e-09 0)
(0.724942 5.72637e-09 0)
(0.724942 3.47389e-09 0)
(0.724942 2.16433e-09 0)
(0.724942 1.33203e-09 0)
(0.724942 6.81524e-10 0)
(0.724942 -1.93397e-12 0)
(0.724942 -9.25672e-10 0)
(0.724942 -2.37383e-09 0)
(0.724942 -4.81748e-09 0)
(0.724942 -9.10923e-09 0)
(0.724942 -1.65403e-08 0)
(0.724942 -2.87579e-08 0)
(0.724942 -4.93373e-08 0)
(0.724942 -5.16935e-08 0)
(0.774951 5.27045e-08 0)
(0.774951 6.11902e-08 0)
(0.774951 4.23937e-08 0)
(0.774951 2.68543e-08 0)
(0.774951 1.63025e-08 0)
(0.774951 9.53923e-09 0)
(0.774951 5.56798e-09 0)
(0.774951 3.31273e-09 0)
(0.774951 2.0159e-09 0)
(0.774951 1.21349e-09 0)
(0.774951 6.16929e-10 0)
(0.774951 2.33278e-11 0)
(0.774951 -7.54159e-10 0)
(0.774951 -1.9625e-09 0)
(0.774951 -4.01236e-09 0)
(0.774951 -7.66616e-09 0)
(0.774951 -1.41619e-08 0)
(0.774951 -2.50911e-08 0)
(0.774951 -4.48925e-08 0)
(0.774951 -4.78784e-08 0)
(0.82496 5.0399e-08 0)
(0.82496 5.68434e-08 0)
(0.82496 3.70838e-08 0)
(0.82496 2.25793e-08 0)
(0.82496 1.3397e-08 0)
(0.82496 7.67963e-09 0)
(0.82496 4.40644e-09 0)
(0.82496 2.5813e-09 0)
(0.82496 1.54721e-09 0)
(0.82496 9.20058e-10 0)
(0.82496 4.67098e-10 0)
(0.82496 2.88001e-11 0)
(0.82496 -5.37545e-10 0)
(0.82496 -1.41575e-09 0)
(0.82496 -2.9152e-09 0)
(0.82496 -5.63191e-09 0)
(0.82496 -1.06179e-08 0)
(0.82496 -1.92192e-08 0)
(0.82496 -3.64645e-08 0)
(0.82496 -4.00588e-08 0)
(0.874971 4.0249e-08 0)
(0.874971 4.34172e-08 0)
(0.874971 2.56972e-08 0)
(0.874971 1.48297e-08 0)
(0.874971 8.55865e-09 0)
(0.874971 4.77583e-09 0)
(0.874971 2.68727e-09 0)
(0.874971 1.55366e-09 0)
(0.874971 9.22123e-10 0)
(0.874971 5.45397e-10 0)
(0.874971 2.77881e-10 0)
(0.874971 2.08958e-11 0)
(0.874971 -3.13216e-10 0)
(0.874971 -8.33127e-10 0)
(0.874971 -1.72317e-09 0)
(0.874971 -3.36284e-09 0)
(0.874971 -6.50085e-09 0)
(0.874971 -1.20151e-08 0)
(0.874971 -2.49032e-08 0)
(0.874971 -2.87868e-08 0)
(0.924982 2.38935e-08 0)
(0.924982 2.40568e-08 0)
(0.924982 1.20758e-08 0)
(0.924982 6.40857e-09 0)
(0.924982 3.57891e-09 0)
(0.924982 1.915e-09 0)
(0.924982 1.04778e-09 0)
(0.924982 5.98373e-10 0)
(0.924982 3.54133e-10 0)
(0.924982 2.11425e-10 0)
(0.924982 1.1088e-10 0)
(0.924982 1.19729e-11 0)
(0.924982 -1.21703e-10 0)
(0.924982 -3.32327e-10 0)
(0.924982 -6.94069e-10 0)
(0.924982 -1.374e-09 0)
(0.924982 -2.7544e-09 0)
(0.924982 -5.16913e-09 0)
(0.924982 -1.24388e-08 0)
(0.924982 -1.56957e-08 0)
(0.974994 7.38034e-09 0)
(0.974994 6.8979e-09 0)
(0.974994 2.74983e-09 0)
(0.974994 1.27666e-09 0)
(0.974994 6.84929e-10 0)
(0.974994 3.4083e-10 0)
(0.974994 1.78524e-10 0)
(0.974994 1.00755e-10 0)
(0.974994 5.96139e-11 0)
(0.974994 3.59149e-11 0)
(0.974994 1.93284e-11 0)
(0.974994 1.82656e-12 0)
(0.974994 -2.47727e-11 0)
(0.974994 -6.77291e-11 0)
(0.974994 -1.37985e-10 0)
(0.974994 -2.72134e-10 0)
(0.974994 -5.7458e-10 0)
(0.974994 -1.08014e-09 0)
(0.974994 -3.23749e-09 0)
(0.974994 -4.52772e-09 0)
)
;

boundaryField
{
    top
    {
        type            fixedValue;
        value           uniform (1 0 0);
    }
    bottom
    {
        type            fixedValue;
        value           uniform (0 0 0);
    }
    inlet
    {
        type            zeroGradient;
    }
    outlet
    {
        type            zeroGradient;
    }
    frontAndBack
    {
        type            empty;
    }
}


// ************************************************************************* //
