/*--------------------------------*- C++ -*----------------------------------*\
  =========                 |
  \\      /  F ield         | OpenFOAM: The Open Source CFD Toolbox
   \\    /   O peration     | Website:  https://openfoam.org
    \\  /    A nd           | Version:  9
     \\/     M anipulation  |
\*---------------------------------------------------------------------------*/
FoamFile
{
    format      ascii;
    class       volScalarField;
    location    "1.9";
    object      p;
}
// * * * * * * * * * * * * * * * * * * * * * * * * * * * * * * * * * * * * * //

dimensions      [0 2 -2 0 0 0 0];

internalField   nonuniform List<scalar> 
400
(
4.54613e-08
7.53433e-08
7.28554e-08
6.92989e-08
6.34594e-08
5.65436e-08
4.9339e-08
4.20091e-08
3.4676e-08
2.74014e-08
2.01523e-08
1.28821e-08
5.57417e-09
-1.76834e-09
-9.13787e-09
-1.65484e-08
-2.38096e-08
-3.03987e-08
-3.8719e-08
-2.44613e-08
4.31144e-08
7.17795e-08
6.90699e-08
6.70303e-08
6.2083e-08
5.57134e-08
4.88585e-08
4.17404e-08
3.45317e-08
2.73292e-08
2.01216e-08
1.28781e-08
5.59478e-09
-1.71065e-09
-9.00313e-09
-1.62578e-08
-2.31934e-08
-2.8985e-08
-3.77964e-08
-2.38341e-08
4.35917e-08
7.20937e-08
6.69572e-08
6.55729e-08
6.11036e-08
5.50661e-08
4.84593e-08
4.15039e-08
3.43952e-08
2.72518e-08
2.00804e-08
1.28621e-08
5.60185e-09
-1.67306e-09
-8.91093e-09
-1.60775e-08
-2.28812e-08
-2.83015e-08
-3.90136e-08
-2.47112e-08
4.52654e-08
7.52362e-08
6.65125e-08
6.49577e-08
6.05741e-08
5.46462e-08
4.81699e-08
4.13144e-08
3.42722e-08
2.71714e-08
2.00287e-08
1.28324e-08
5.59103e-09
-1.6645e-09
-8.87825e-09
-1.60322e-08
-2.28833e-08
-2.83514e-08
-4.14753e-08
-2.60683e-08
4.70986e-08
7.95896e-08
6.69307e-08
6.48174e-08
6.03149e-08
5.4368e-08
4.79489e-08
4.11516e-08
3.41541e-08
2.70859e-08
1.99681e-08
1.27913e-08
5.56451e-09
-1.68114e-09
-8.89308e-09
-1.60801e-08
-2.30738e-08
-2.87546e-08
-4.42286e-08
-2.7358e-08
4.87911e-08
8.42937e-08
6.77772e-08
6.49347e-08
6.02176e-08
5.41753e-08
4.77666e-08
4.10022e-08
3.40369e-08
2.69959e-08
1.99006e-08
1.27412e-08
5.52527e-09
-1.71726e-09
-8.94057e-09
-1.61827e-08
-2.33543e-08
-2.92818e-08
-4.6754e-08
-2.84073e-08
5.02842e-08
8.88724e-08
6.88035e-08
6.51766e-08
6.0207e-08
5.40303e-08
4.76038e-08
4.08582e-08
3.3919e-08
2.69026e-08
1.98284e-08
1.26847e-08
5.47708e-09
-1.76601e-09
-9.00599e-09
-1.6306e-08
-2.36532e-08
-2.97934e-08
-4.87869e-08
-2.91859e-08
5.15186e-08
9.29351e-08
6.98085e-08
6.54263e-08
6.02151e-08
5.38982e-08
4.74439e-08
4.07127e-08
3.37986e-08
2.68068e-08
1.97536e-08
1.2625e-08
5.42483e-09
-1.81886e-09
-9.07278e-09
-1.64171e-08
-2.39059e-08
-3.01851e-08
-5.01434e-08
-2.96647e-08
5.24572e-08
9.6178e-08
7.06292e-08
6.55933e-08
6.01885e-08
5.37531e-08
4.72756e-08
4.05616e-08
3.36754e-08
2.67102e-08
1.96787e-08
1.25657e-08
5.3741e-09
-1.86658e-09
-9.12483e-09
-1.6487e-08
-2.406e-08
-3.03799e-08
-5.07194e-08
-2.98359e-08
5.3072e-08
9.83789e-08
7.11538e-08
6.56199e-08
6.00958e-08
5.35822e-08
4.70957e-08
4.04056e-08
3.35515e-08
2.6615e-08
1.96065e-08
1.25105e-08
5.33022e-09
-1.90089e-09
-9.14876e-09
-1.64941e-08
-2.40797e-08
-3.03338e-08
-5.0476e-08
-2.97013e-08
5.3343e-08
9.93934e-08
7.13202e-08
6.54836e-08
5.99284e-08
5.33871e-08
4.69096e-08
4.02504e-08
3.34314e-08
2.6525e-08
1.954e-08
1.24625e-08
5.29738e-09
-1.91585e-09
-9.13609e-09
-1.64268e-08
-2.39478e-08
-3.00327e-08
-4.94325e-08
-2.92742e-08
5.32523e-08
9.9151e-08
7.11147e-08
6.51951e-08
5.96994e-08
5.31821e-08
4.673e-08
4.01056e-08
3.33219e-08
2.64443e-08
1.94822e-08
1.24241e-08
5.27793e-09
-1.909e-09
-9.08463e-09
-1.62849e-08
-2.3667e-08
-2.94911e-08
-4.76565e-08
-2.85744e-08
5.27836e-08
9.76584e-08
7.05748e-08
6.47968e-08
5.94414e-08
5.2992e-08
4.65751e-08
3.99838e-08
3.32308e-08
2.63778e-08
1.94356e-08
1.23964e-08
5.27192e-09
-1.882e-09
-8.99927e-09
-1.60803e-08
-2.32594e-08
-2.87505e-08
-4.52601e-08
-2.76296e-08
5.19315e-08
9.50139e-08
6.97908e-08
6.43616e-08
5.92022e-08
5.28484e-08
4.64657e-08
3.98981e-08
3.3166e-08
2.63297e-08
1.94021e-08
1.23794e-08
5.277e-09
-1.8407e-09
-8.89215e-09
-1.58368e-08
-2.2767e-08
-2.78789e-08
-4.23993e-08
-2.64778e-08
5.06985e-08
9.14175e-08
6.89126e-08
6.39873e-08
5.90412e-08
5.27849e-08
4.64212e-08
3.98597e-08
3.31337e-08
2.6303e-08
1.93825e-08
1.23716e-08
5.28871e-09
-1.79461e-09
-8.78158e-09
-1.55888e-08
-2.22498e-08
-2.69701e-08
-3.92736e-08
-2.51684e-08
4.91191e-08
8.71928e-08
6.81359e-08
6.37887e-08
5.90185e-08
5.28318e-08
4.64561e-08
3.98755e-08
3.31369e-08
2.62988e-08
1.93762e-08
1.23704e-08
5.30103e-09
-1.75564e-09
-8.68998e-09
-1.53781e-08
-2.17812e-08
-2.61379e-08
-3.61254e-08
-2.37662e-08
4.72199e-08
8.27846e-08
6.77146e-08
6.38805e-08
5.91897e-08
5.30096e-08
4.65766e-08
3.99464e-08
3.31751e-08
2.63157e-08
1.93814e-08
1.23724e-08
5.30716e-09
-1.73681e-09
-8.64122e-09
-1.52497e-08
-2.14447e-08
-2.55198e-08
-3.32403e-08
-2.23412e-08
4.52774e-08
7.9064e-08
6.80762e-08
6.44449e-08
5.96262e-08
5.33449e-08
4.67894e-08
4.00728e-08
3.32468e-08
2.63523e-08
1.93961e-08
1.23737e-08
5.29904e-09
-1.75372e-09
-8.6638e-09
-1.5259e-08
-2.13541e-08
-2.53366e-08
-3.10912e-08
-2.10841e-08
4.41763e-08
7.76608e-08
7.0012e-08
6.57826e-08
6.04541e-08
5.38824e-08
4.71096e-08
4.0259e-08
3.33537e-08
2.64098e-08
1.94204e-08
1.23723e-08
5.27082e-09
-1.81965e-09
-8.78691e-09
-1.54713e-08
-2.16601e-08
-2.5942e-08
-3.05136e-08
-2.05864e-08
4.55446e-08
8.00085e-08
7.35307e-08
6.78469e-08
6.16133e-08
5.45677e-08
4.75002e-08
4.04823e-08
3.34824e-08
2.64806e-08
1.94512e-08
1.23684e-08
5.22648e-09
-1.92474e-09
-8.99358e-09
-1.58592e-08
-2.23471e-08
-2.73241e-08
-3.20186e-08
-2.1733e-08
)
;

boundaryField
{
    top
    {
        type            zeroGradient;
    }
    bottom
    {
        type            zeroGradient;
    }
    inlet
    {
        type            fixedValue;
        value           uniform 0;
    }
    outlet
    {
        type            fixedValue;
        value           uniform 0;
    }
    frontAndBack
    {
        type            empty;
    }
}


// ************************************************************************* //
