/*--------------------------------*- C++ -*----------------------------------*\
  =========                 |
  \\      /  F ield         | OpenFOAM: The Open Source CFD Toolbox
   \\    /   O peration     | Website:  https://openfoam.org
    \\  /    A nd           | Version:  9
     \\/     M anipulation  |
\*---------------------------------------------------------------------------*/
FoamFile
{
    format      ascii;
    class       surfaceScalarField;
    location    "1.9";
    object      phi;
}
// * * * * * * * * * * * * * * * * * * * * * * * * * * * * * * * * * * * * * //

dimensions      [0 3 -1 0 0 0 0];

internalField   nonuniform List<scalar> 
760
(
1.24995e-06
-2.78435e-13
1.24995e-06
-2.31711e-13
1.24995e-06
-1.10378e-13
1.24995e-06
-6.27607e-14
1.24995e-06
-3.60261e-14
1.24995e-06
-1.97995e-14
1.24995e-06
-1.08507e-14
1.24995e-06
-5.68227e-15
1.24995e-06
-2.77425e-15
1.24995e-06
-1.26336e-15
1.24995e-06
-4.74297e-16
1.24995e-06
1.03422e-17
1.24995e-06
4.56584e-16
1.24995e-06
1.17996e-15
1.24995e-06
2.79635e-15
1.24995e-06
7.06102e-15
1.24995e-06
1.68382e-14
1.24995e-06
3.76631e-14
1.24995e-06
1.18598e-13
1.36903e-13
3.74986e-06
-6.70273e-13
3.74986e-06
-6.28103e-13
3.74986e-06
-3.59115e-13
3.74986e-06
-2.13728e-13
3.74986e-06
-1.26127e-13
3.74986e-06
-7.1767e-14
3.74986e-06
-4.00885e-14
3.74986e-06
-2.15848e-14
3.74986e-06
-1.09832e-14
3.74986e-06
-5.12624e-15
3.74986e-06
-1.91163e-15
3.74986e-06
2.31889e-17
3.74986e-06
1.70359e-15
3.74986e-06
4.3407e-15
3.74986e-06
1.01033e-14
3.74986e-06
2.39964e-14
3.74986e-06
5.49984e-14
3.74986e-06
1.18096e-13
3.74986e-06
2.87815e-13
3.0417e-13
6.24976e-06
-1.01946e-12
6.24976e-06
-1.02278e-12
6.24977e-06
-6.50158e-13
6.24977e-06
-4.0261e-13
6.24977e-06
-2.4397e-13
6.24977e-06
-1.42185e-13
6.24977e-06
-8.06942e-14
6.24977e-06
-4.41382e-14
6.24977e-06
-2.28896e-14
6.24977e-06
-1.08919e-14
6.24977e-06
-4.20844e-15
6.24977e-06
-2.32703e-16
6.24977e-06
3.06758e-15
6.24977e-06
8.02961e-15
6.24977e-06
1.85961e-14
6.24977e-06
4.29274e-14
6.24977e-06
9.53172e-14
6.24977e-06
1.97161e-13
6.24977e-06
4.17623e-13
4.17934e-13
8.74968e-06
-1.28092e-12
8.74968e-06
-1.33412e-12
8.74968e-06
-9.08093e-13
8.74968e-06
-5.82685e-13
8.74968e-06
-3.6162e-13
8.74968e-06
-2.14939e-13
8.74968e-06
-1.23662e-13
8.74968e-06
-6.84471e-14
8.74968e-06
-3.59268e-14
8.74968e-06
-1.73412e-14
8.74968e-06
-6.94697e-15
8.74968e-06
-8.87613e-16
8.74968e-06
3.84673e-15
8.74968e-06
1.05741e-14
8.74968e-06
2.45965e-14
8.74968e-06
5.60177e-14
8.74968e-06
1.21972e-13
8.74968e-06
2.43898e-13
8.74968e-06
4.7698e-13
4.62598e-13
1.12496e-05
-1.42796e-12
1.12496e-05
-1.52048e-12
1.12496e-05
-1.08639e-12
1.12496e-05
-7.17921e-13
1.12496e-05
-4.5501e-13
1.12496e-05
-2.74985e-13
1.12496e-05
-1.60067e-13
1.12496e-05
-8.93833e-14
1.12496e-05
-4.72756e-14
1.12496e-05
-2.30374e-14
1.12496e-05
-9.52848e-15
1.12496e-05
-1.915e-15
1.12496e-05
3.51483e-15
1.12496e-05
1.06386e-14
1.12496e-05
2.5297e-14
1.12496e-05
5.79138e-14
1.12496e-05
1.25531e-13
1.12496e-05
2.45553e-13
1.12496e-05
4.57893e-13
4.34021e-13
1.37495e-05
-1.45347e-12
1.37495e-05
-1.56769e-12
1.37495e-05
-1.16059e-12
1.37495e-05
-7.85541e-13
1.37495e-05
-5.06868e-13
1.37495e-05
-3.1066e-13
1.37495e-05
-1.82557e-13
1.37495e-05
-1.02553e-13
1.37495e-05
-5.4429e-14
1.37495e-05
-2.66352e-14
1.37495e-05
-1.13178e-14
1.37495e-05
-3.14775e-15
1.37495e-05
1.84934e-15
1.37495e-05
7.53777e-15
1.37495e-05
1.93587e-14
1.37495e-05
4.64135e-14
1.37495e-05
1.03323e-13
1.37495e-05
2.01241e-13
1.37495e-05
3.6768e-13
3.39946e-13
1.62495e-05
-1.36229e-12
1.62495e-05
-1.47858e-12
1.62495e-05
-1.12416e-12
1.62495e-05
-7.75502e-13
1.62495e-05
-5.08036e-13
1.62495e-05
-3.15026e-13
1.62495e-05
-1.86451e-13
1.62495e-05
-1.05018e-13
1.62495e-05
-5.56447e-14
1.62495e-05
-2.71511e-14
1.62495e-05
-1.17915e-14
1.62495e-05
-4.33275e-15
1.62495e-05
-1.048e-15
1.62495e-05
1.32447e-15
1.62495e-05
6.95368e-15
1.62495e-05
2.23e-14
1.62495e-05
5.78784e-14
1.62495e-05
1.18088e-13
1.62495e-05
2.20905e-13
1.93537e-13
1.87494e-05
-1.16915e-12
1.87494e-05
-1.26885e-12
1.87494e-05
-9.84436e-13
1.87494e-05
-6.89424e-13
1.87494e-05
-4.57561e-13
1.87494e-05
-2.86487e-13
1.87494e-05
-1.70327e-13
1.87494e-05
-9.57576e-14
1.87494e-05
-5.02592e-14
1.87494e-05
-2.41672e-14
1.87494e-05
-1.06637e-14
1.87494e-05
-5.20702e-15
1.87494e-05
-4.80332e-15
1.87494e-05
-7.298e-15
1.87494e-05
-1.04547e-14
1.87494e-05
-1.13587e-14
1.87494e-05
-4.57381e-15
1.87494e-05
7.82857e-15
1.87494e-05
3.64202e-14
1.18301e-14
2.12494e-05
-8.95509e-13
2.12494e-05
-9.63109e-13
2.12494e-05
-7.59657e-13
2.12494e-05
-5.38744e-13
2.12494e-05
-3.62059e-13
2.12494e-05
-2.28664e-13
2.12494e-05
-1.36128e-13
2.12494e-05
-7.58068e-14
2.12494e-05
-3.88136e-14
2.12494e-05
-1.79296e-14
2.12494e-05
-7.96488e-15
2.12494e-05
-5.57265e-15
2.12494e-05
-8.87362e-15
2.12494e-05
-1.7162e-14
2.12494e-05
-3.05196e-14
2.12494e-05
-5.00117e-14
2.12494e-05
-7.57202e-14
2.12494e-05
-1.15502e-13
2.12494e-05
-1.65519e-13
-1.86768e-13
2.37494e-05
-5.68007e-13
2.37494e-05
-5.92493e-13
2.37494e-05
-4.76083e-13
2.37494e-05
-3.4265e-13
2.37494e-05
-2.34379e-13
2.37494e-05
-1.49662e-13
2.37494e-05
-8.87723e-14
2.37494e-05
-4.8071e-14
2.37494e-05
-2.29687e-14
2.37494e-05
-9.32324e-15
2.37494e-05
-4.05623e-15
2.37494e-05
-5.35148e-15
2.37494e-05
-1.26642e-14
2.37494e-05
-2.68744e-14
2.37494e-05
-5.04626e-14
2.37494e-05
-8.84718e-14
2.37494e-05
-1.46487e-13
2.37494e-05
-2.37434e-13
2.37494e-05
-3.64775e-13
-3.83594e-13
2.62494e-05
-2.16623e-13
2.62494e-05
-1.92534e-13
2.62494e-05
-1.65491e-13
2.62494e-05
-1.25694e-13
2.62494e-05
-9.1789e-14
2.62494e-05
-6.08164e-14
2.62494e-05
-3.53506e-14
2.62494e-05
-1.68291e-14
2.62494e-05
-5.21797e-15
2.62494e-05
2.80579e-16
2.62494e-05
4.29726e-16
2.62494e-05
-4.60403e-15
2.62494e-05
-1.56372e-14
2.62494e-05
-3.50546e-14
2.62494e-05
-6.75235e-14
2.62494e-05
-1.21662e-13
2.62494e-05
-2.08175e-13
2.62494e-05
-3.44389e-13
2.62494e-05
-5.4261e-13
-5.60961e-13
2.87494e-05
1.27001e-13
2.87494e-05
1.98795e-13
2.87494e-05
1.3737e-13
2.87494e-05
8.48383e-14
2.87494e-05
4.62665e-14
2.87494e-05
2.49952e-14
2.87494e-05
1.60298e-14
2.87494e-05
1.30087e-14
2.87494e-05
1.15644e-14
2.87494e-05
9.28182e-15
2.87494e-05
4.71285e-15
2.87494e-05
-3.50873e-15
2.87494e-05
-1.73925e-14
2.87494e-05
-4.05437e-14
2.87494e-05
-7.93472e-14
2.87494e-05
-1.45249e-13
2.87494e-05
-2.53347e-13
2.87494e-05
-4.24718e-13
2.87494e-05
-6.82587e-13
-7.03034e-13
3.12494e-05
4.31168e-13
3.12494e-05
5.43037e-13
3.12494e-05
3.97562e-13
3.12494e-05
2.61888e-13
3.12494e-05
1.60778e-13
3.12494e-05
9.53179e-14
3.12494e-05
5.76188e-14
3.12494e-05
3.67895e-14
3.12494e-05
2.46749e-14
3.12494e-05
1.61722e-14
3.12494e-05
8.03277e-15
3.12494e-05
-2.30806e-15
3.12494e-05
-1.77143e-14
3.12494e-05
-4.25664e-14
3.12494e-05
-8.42961e-14
3.12494e-05
-1.56149e-13
3.12494e-05
-2.76539e-13
3.12494e-05
-4.69529e-13
3.12494e-05
-7.71322e-13
-7.96623e-13
3.37495e-05
6.66254e-13
3.37495e-05
8.03661e-13
3.37495e-05
5.83098e-13
3.37495e-05
3.82038e-13
3.37495e-05
2.35997e-13
3.37495e-05
1.40251e-13
3.37495e-05
8.34458e-14
3.37495e-05
5.10351e-14
3.37495e-05
3.21358e-14
3.37495e-05
1.98622e-14
3.37495e-05
9.82392e-15
3.37495e-05
-1.23716e-15
3.37495e-05
-1.65876e-14
3.37495e-05
-4.08386e-14
3.37495e-05
-8.16751e-14
3.37495e-05
-1.52908e-13
3.37495e-05
-2.74839e-13
3.37495e-05
-4.73398e-13
3.37495e-05
-7.99227e-13
-8.31938e-13
3.62495e-05
8.06165e-13
3.62495e-05
9.48683e-13
3.62495e-05
6.69072e-13
3.62495e-05
4.29234e-13
3.62495e-05
2.6244e-13
3.62495e-05
1.54427e-13
3.62495e-05
9.06097e-14
3.62495e-05
5.42065e-14
3.62495e-05
3.31522e-14
3.62495e-05
1.99395e-14
3.62495e-05
9.85918e-15
3.62495e-05
-4.57597e-16
3.62495e-05
-1.419e-14
3.62495e-05
-3.56212e-14
3.62495e-05
-7.18658e-14
3.62495e-05
-1.35969e-13
3.62495e-05
-2.48352e-13
3.62495e-05
-4.35116e-13
3.62495e-05
-7.6126e-13
-8.03226e-13
3.87496e-05
8.32453e-13
3.87496e-05
9.55553e-13
3.87496e-05
6.42545e-13
3.87496e-05
3.99132e-13
3.87496e-05
2.39489e-13
3.87496e-05
1.38639e-13
3.87496e-05
8.01164e-14
3.87496e-05
4.71693e-14
3.87496e-05
2.83464e-14
3.87496e-05
1.67996e-14
3.87496e-05
8.31959e-15
3.87496e-05
-1.7508e-17
3.87496e-05
-1.0872e-14
3.87496e-05
-2.77193e-14
3.87496e-05
-5.6372e-14
3.87496e-05
-1.07822e-13
3.87496e-05
-2.00617e-13
3.87496e-05
-3.58522e-13
3.87496e-05
-6.58345e-13
-7.10018e-13
4.12497e-05
7.35688e-13
4.12497e-05
8.16166e-13
4.12497e-05
5.09871e-13
4.12497e-05
3.02897e-13
4.12497e-05
1.77449e-13
4.12497e-05
1.00451e-13
4.12497e-05
5.70705e-14
4.12497e-05
3.31509e-14
4.12497e-05
1.96969e-14
4.12497e-05
1.15886e-14
4.12497e-05
5.76663e-15
4.12497e-05
1.45304e-16
4.12497e-05
-7.13334e-15
4.12497e-05
-1.84345e-14
4.12497e-05
-3.77619e-14
4.12497e-05
-7.30372e-14
4.12497e-05
-1.3892e-13
4.12497e-05
-2.53681e-13
4.12497e-05
-4.9895e-13
-5.58187e-13
4.37498e-05
5.26467e-13
4.37498e-05
5.50973e-13
4.37498e-05
3.04448e-13
4.37498e-05
1.7089e-13
4.37498e-05
9.74634e-14
4.37498e-05
5.35826e-14
4.37498e-05
2.9836e-14
4.37498e-05
1.71414e-14
4.37498e-05
1.01203e-14
4.37498e-05
5.95821e-15
4.37498e-05
3.00683e-15
4.37498e-05
1.51936e-16
4.37498e-05
-3.59929e-15
4.37498e-05
-9.45555e-15
4.37498e-05
-1.95035e-14
4.37498e-05
-3.81382e-14
4.37498e-05
-7.46048e-14
4.37498e-05
-1.38518e-13
4.37498e-05
-3.03605e-13
-3.63285e-13
4.62499e-05
2.32659e-13
4.62499e-05
2.23071e-13
4.62499e-05
9.9528e-14
4.62499e-05
5.11917e-14
4.62499e-05
2.86696e-14
4.62499e-05
1.5035e-14
4.62499e-05
8.14482e-15
4.62499e-05
4.64092e-15
4.62499e-05
2.74653e-15
4.62499e-05
1.64685e-15
4.62499e-05
8.76365e-16
4.62499e-05
1.04381e-16
4.62499e-05
-9.81411e-16
4.62499e-05
-2.69962e-15
4.62499e-05
-5.60933e-15
4.62499e-05
-1.10898e-14
4.62499e-05
-2.26107e-14
4.62499e-05
-4.18264e-14
4.62499e-05
-1.11035e-13
-1.50374e-13
4.875e-05
4.875e-05
4.875e-05
4.875e-05
4.875e-05
4.875e-05
4.875e-05
4.875e-05
4.875e-05
4.875e-05
4.875e-05
4.875e-05
4.875e-05
4.875e-05
4.875e-05
4.875e-05
4.875e-05
4.875e-05
4.875e-05
)
;

boundaryField
{
    top
    {
        type            calculated;
        value           uniform 0;
    }
    bottom
    {
        type            calculated;
        value           uniform 0;
    }
    inlet
    {
        type            calculated;
        value           nonuniform List<scalar> 
20
(
-1.24995e-06
-3.74986e-06
-6.24976e-06
-8.74968e-06
-1.12496e-05
-1.37495e-05
-1.62495e-05
-1.87494e-05
-2.12494e-05
-2.37494e-05
-2.62494e-05
-2.87494e-05
-3.12494e-05
-3.37495e-05
-3.62495e-05
-3.87496e-05
-4.12497e-05
-4.37498e-05
-4.62499e-05
-4.875e-05
)
;
    }
    outlet
    {
        type            calculated;
        value           nonuniform List<scalar> 
20
(
1.24995e-06
3.74986e-06
6.24977e-06
8.74968e-06
1.12496e-05
1.37495e-05
1.62495e-05
1.87494e-05
2.12494e-05
2.37494e-05
2.62494e-05
2.87494e-05
3.12494e-05
3.37495e-05
3.62495e-05
3.87496e-05
4.12497e-05
4.37498e-05
4.62499e-05
4.875e-05
)
;
    }
    frontAndBack
    {
        type            empty;
        value           nonuniform List<scalar> 0();
    }
}


// ************************************************************************* //
