/*--------------------------------*- C++ -*----------------------------------*\
  =========                 |
  \\      /  F ield         | OpenFOAM: The Open Source CFD Toolbox
   \\    /   O peration     | Website:  https://openfoam.org
    \\  /    A nd           | Version:  9
     \\/     M anipulation  |
\*---------------------------------------------------------------------------*/
FoamFile
{
    format      ascii;
    class       volVectorField;
    location    "1.9";
    object      U;
}
// * * * * * * * * * * * * * * * * * * * * * * * * * * * * * * * * * * * * * //

dimensions      [0 1 -1 0 0 0 0];

internalField   nonuniform List<vector> 
400
(
(0.024999 -1.36245e-09 0)
(0.024999 -1.08962e-09 0)
(0.024999 -4.57601e-10 0)
(0.024999 -2.43718e-10 0)
(0.024999 -1.3438e-10 0)
(0.024999 -7.11586e-11 0)
(0.024999 -3.8334e-11 0)
(0.024999 -1.91656e-11 0)
(0.024999 -8.6304e-12 0)
(0.024999 -3.6825e-12 0)
(0.024999 -1.33354e-12 0)
(0.024999 1.90276e-13 0)
(0.024999 1.77331e-12 0)
(0.024999 4.4645e-12 0)
(0.024999 1.06558e-11 0)
(0.024999 2.83617e-11 0)
(0.024999 7.08602e-11 0)
(0.024999 1.69142e-10 0)
(0.024999 5.97734e-10 0)
(0.024999 7.00973e-10 0)
(0.0749971 -4.69152e-09 0)
(0.0749971 -4.17069e-09 0)
(0.0749971 -2.17697e-09 0)
(0.0749971 -1.24946e-09 0)
(0.0749971 -7.21551e-10 0)
(0.0749971 -4.01108e-10 0)
(0.0749971 -2.20507e-10 0)
(0.0749971 -1.1662e-10 0)
(0.0749971 -5.78323e-11 0)
(0.0749971 -2.62513e-11 0)
(0.0749971 -9.34603e-12 0)
(0.0749971 8.78413e-13 0)
(0.0749971 1.00975e-11 0)
(0.0749971 2.51124e-11 0)
(0.0749971 5.87902e-11 0)
(0.0749971 1.4382e-10 0)
(0.0749971 3.38198e-10 0)
(0.0749971 7.52747e-10 0)
(0.0749971 2.04582e-09 0)
(0.0749971 2.24595e-09 0)
(0.124995 -8.53252e-09 0)
(0.124995 -8.28626e-09 0)
(0.124995 -5.00486e-09 0)
(0.124995 -3.02819e-09 0)
(0.124995 -1.80629e-09 0)
(0.124995 -1.03868e-09 0)
(0.124995 -5.84114e-10 0)
(0.124995 -3.16549e-10 0)
(0.124995 -1.62431e-10 0)
(0.124995 -7.64735e-11 0)
(0.124995 -2.89045e-11 0)
(0.124995 -2.51203e-13 0)
(0.124995 2.44111e-11 0)
(0.124995 6.25942e-11 0)
(0.124995 1.44975e-10 0)
(0.124995 3.38591e-10 0)
(0.124995 7.62778e-10 0)
(0.124995 1.60947e-09 0)
(0.124995 3.62097e-09 0)
(0.124995 3.72411e-09 0)
(0.174994 -1.17404e-08 0)
(0.174994 -1.20074e-08 0)
(0.174994 -7.91763e-09 0)
(0.174994 -4.9872e-09 0)
(0.174994 -3.05512e-09 0)
(0.174994 -1.79644e-09 0)
(0.174994 -1.02562e-09 0)
(0.174994 -5.64201e-10 0)
(0.174994 -2.9448e-10 0)
(0.174994 -1.41178e-10 0)
(0.174994 -5.54229e-11 0)
(0.174994 -4.64045e-12 0)
(0.174994 3.67199e-11 0)
(0.174994 9.76142e-11 0)
(0.174994 2.25745e-10 0)
(0.174994 5.15765e-10 0)
(0.174994 1.13098e-09 0)
(0.174994 2.29573e-09 0)
(0.174994 4.63613e-09 0)
(0.174994 4.57408e-09 0)
(0.224992 -1.38441e-08 0)
(0.224992 -1.45889e-08 0)
(0.224992 -1.02007e-08 0)
(0.224992 -6.64469e-09 0)
(0.224992 -4.16641e-09 0)
(0.224992 -2.49669e-09 0)
(0.224992 -1.44465e-09 0)
(0.224992 -8.03392e-10 0)
(0.224992 -4.23659e-10 0)
(0.224992 -2.05691e-10 0)
(0.224992 -8.37085e-11 0)
(0.224992 -1.33409e-11 0)
(0.224992 3.9915e-11 0)
(0.224992 1.13294e-10 0)
(0.224992 2.64695e-10 0)
(0.224992 6.0073e-10 0)
(0.224992 1.29858e-09 0)
(0.224992 2.55924e-09 0)
(0.224992 4.85141e-09 0)
(0.224992 4.65886e-09 0)
(0.274991 -1.47083e-08 0)
(0.274991 -1.5773e-08 0)
(0.274991 -1.15022e-08 0)
(0.274991 -7.70039e-09 0)
(0.274991 -4.92625e-09 0)
(0.274991 -2.99923e-09 0)
(0.274991 -1.75476e-09 0)
(0.274991 -9.8348e-10 0)
(0.274991 -5.21691e-10 0)
(0.274991 -2.55183e-10 0)
(0.274991 -1.07081e-10 0)
(0.274991 -2.52278e-11 0)
(0.274991 3.00062e-11 0)
(0.274991 9.87917e-11 0)
(0.274991 2.3977e-10 0)
(0.274991 5.54134e-10 0)
(0.274991 1.20488e-09 0)
(0.274991 2.33784e-09 0)
(0.274991 4.27993e-09 0)
(0.274991 4.01829e-09 0)
(0.32499 -1.43544e-08 0)
(0.32499 -1.55415e-08 0)
(0.32499 -1.16895e-08 0)
(0.32499 -7.99874e-09 0)
(0.32499 -5.20429e-09 0)
(0.32499 -3.21049e-09 0)
(0.32499 -1.89471e-09 0)
(0.32499 -1.06689e-09 0)
(0.32499 -5.66718e-10 0)
(0.32499 -2.77611e-10 0)
(0.32499 -1.19489e-10 0)
(0.32499 -3.8043e-11 0)
(0.32499 6.48966e-12 0)
(0.32499 5.11104e-11 0)
(0.32499 1.45745e-10 0)
(0.32499 3.70847e-10 0)
(0.32499 8.55085e-10 0)
(0.32499 1.67651e-09 0)
(0.32499 3.05522e-09 0)
(0.32499 2.77749e-09 0)
(0.374989 -1.28872e-08 0)
(0.374989 -1.39996e-08 0)
(0.374989 -1.07773e-08 0)
(0.374989 -7.5022e-09 0)
(0.374989 -4.95105e-09 0)
(0.374989 -3.08743e-09 0)
(0.374989 -1.83318e-09 0)
(0.374989 -1.03308e-09 0)
(0.374989 -5.46142e-10 0)
(0.374989 -2.65557e-10 0)
(0.374989 -1.1659e-10 0)
(0.374989 -4.89733e-11 0)
(0.374989 -2.80062e-11 0)
(0.374989 -2.55429e-11 0)
(0.374989 -8.28427e-12 0)
(0.374989 7.22317e-11 0)
(0.374989 2.9726e-10 0)
(0.374989 6.77558e-10 0)
(0.374989 1.35244e-09 0)
(0.374989 1.09245e-09 0)
(0.424988 -1.04926e-08 0)
(0.424988 -1.13552e-08 0)
(0.424988 -8.90016e-09 0)
(0.424988 -6.28051e-09 0)
(0.424988 -4.19701e-09 0)
(0.424988 -2.64104e-09 0)
(0.424988 -1.57304e-09 0)
(0.424988 -8.82134e-10 0)
(0.424988 -4.59247e-10 0)
(0.424988 -2.18036e-10 0)
(0.424988 -9.69679e-11 0)
(0.424988 -5.5532e-11 0)
(0.424988 -6.85949e-11 0)
(0.424988 -1.21246e-10 0)
(0.424988 -2.0215e-10 0)
(0.424988 -3.01554e-10 0)
(0.424988 -3.92327e-10 0)
(0.424988 -5.25401e-10 0)
(0.424988 -6.27918e-10 0)
(0.424988 -8.55551e-10 0)
(0.474988 -7.4152e-09 0)
(0.474988 -7.89251e-09 0)
(0.474988 -6.28674e-09 0)
(0.474988 -4.49211e-09 0)
(0.474988 -3.04331e-09 0)
(0.474988 -1.93238e-09 0)
(0.474988 -1.15004e-09 0)
(0.474988 -6.34562e-10 0)
(0.474988 -3.17486e-10 0)
(0.474988 -1.40913e-10 0)
(0.474988 -6.26326e-11 0)
(0.474988 -5.62417e-11 0)
(0.474988 -1.09298e-10 0)
(0.474988 -2.22588e-10 0)
(0.474988 -4.09092e-10 0)
(0.474988 -6.99844e-10 0)
(0.474988 -1.12377e-09 0)
(0.474988 -1.78604e-09 0)
(0.474988 -2.68054e-09 0)
(0.474988 -2.87832e-09 0)
(0.524988 -3.9428e-09 0)
(0.524988 -3.95027e-09 0)
(0.524988 -3.23357e-09 0)
(0.524988 -2.36196e-09 0)
(0.524988 -1.64558e-09 0)
(0.524988 -1.06231e-09 0)
(0.524988 -6.26687e-10 0)
(0.524988 -3.2784e-10 0)
(0.524988 -1.4256e-10 0)
(0.524988 -4.59886e-11 0)
(0.524988 -1.87872e-11 0)
(0.524988 -5.10229e-11 0)
(0.524988 -1.44221e-10 0)
(0.524988 -3.15147e-10 0)
(0.524988 -6.00382e-10 0)
(0.524988 -1.06961e-09 0)
(0.524988 -1.80572e-09 0)
(0.524988 -2.9612e-09 0)
(0.524988 -4.60818e-09 0)
(0.524988 -4.79132e-09 0)
(0.574988 -3.87683e-10 0)
(0.574988 9.89012e-11 0)
(0.574988 -7.99827e-11 0)
(0.574988 -1.56169e-10 0)
(0.574988 -1.93453e-10 0)
(0.574988 -1.56489e-10 0)
(0.574988 -8.21538e-11 0)
(0.574988 -9.9897e-12 0)
(0.574988 3.74077e-11 0)
(0.574988 5.1135e-11 0)
(0.574988 2.71245e-11 0)
(0.574988 -4.11772e-11 0)
(0.574988 -1.68529e-10 0)
(0.574988 -3.8578e-10 0)
(0.574988 -7.49595e-10 0)
(0.574988 -1.36243e-09 0)
(0.574988 -2.35554e-09 0)
(0.574988 -3.92241e-09 0)
(0.574988 -6.23279e-09 0)
(0.574988 -6.42484e-09 0)
(0.624989 2.92843e-09 0)
(0.624989 3.86716e-09 0)
(0.624989 2.8183e-09 0)
(0.624989 1.84562e-09 0)
(0.624989 1.11398e-09 0)
(0.624989 6.53215e-10 0)
(0.624989 4.00686e-10 0)
(0.624989 2.68846e-10 0)
(0.624989 1.93097e-10 0)
(0.624989 1.34074e-10 0)
(0.624989 6.69485e-11 0)
(0.624989 -2.8985e-11 0)
(0.624989 -1.79085e-10 0)
(0.624989 -4.24507e-10 0)
(0.624989 -8.36135e-10 0)
(0.624989 -1.54015e-09 0)
(0.624989 -2.70718e-09 0)
(0.624989 -4.56512e-09 0)
(0.624989 -7.40329e-09 0)
(0.624989 -7.6317e-09 0)
(0.67499 5.69475e-09 0)
(0.67499 6.97352e-09 0)
(0.67499 5.11793e-09 0)
(0.67499 3.38234e-09 0)
(0.67499 2.09562e-09 0)
(0.67499 1.24978e-09 0)
(0.67499 7.49718e-10 0)
(0.67499 4.65819e-10 0)
(0.67499 2.99773e-10 0)
(0.67499 1.89066e-10 0)
(0.67499 9.36284e-11 0)
(0.67499 -1.70304e-11 0)
(0.67499 -1.74752e-10 0)
(0.67499 -4.25867e-10 0)
(0.67499 -8.47948e-10 0)
(0.67499 -1.57937e-09 0)
(0.67499 -2.8176e-09 0)
(0.67499 -4.81606e-09 0)
(0.67499 -8.00315e-09 0)
(0.67499 -8.29537e-09 0)
(0.724991 7.62641e-09 0)
(0.724991 9.06724e-09 0)
(0.724991 6.5244e-09 0)
(0.724991 4.24692e-09 0)
(0.724991 2.6183e-09 0)
(0.724991 1.5522e-09 0)
(0.724991 9.17777e-10 0)
(0.724991 5.54189e-10 0)
(0.724991 3.42635e-10 0)
(0.724991 2.08073e-10 0)
(0.724991 1.02906e-10 0)
(0.724991 -7.45174e-12 0)
(0.724991 -1.56397e-10 0)
(0.724991 -3.8971e-10 0)
(0.724991 -7.83308e-10 0)
(0.724991 -1.47462e-09 0)
(0.724991 -2.67181e-09 0)
(0.724991 -4.64047e-09 0)
(0.724991 -7.95707e-09 0)
(0.724991 -8.3364e-09 0)
(0.774992 8.49391e-09 0)
(0.774992 9.86183e-09 0)
(0.774992 6.83156e-09 0)
(0.774992 4.32625e-09 0)
(0.774992 2.62492e-09 0)
(0.774992 1.5343e-09 0)
(0.774992 8.9376e-10 0)
(0.774992 5.29859e-10 0)
(0.774992 3.20481e-10 0)
(0.774992 1.90846e-10 0)
(0.774992 9.4459e-11 0)
(0.774992 -1.36371e-12 0)
(0.774992 -1.26722e-10 0)
(0.774992 -3.21409e-10 0)
(0.774992 -6.51613e-10 0)
(0.774992 -1.24023e-09 0)
(0.774992 -2.28685e-09 0)
(0.774992 -4.04806e-09 0)
(0.774992 -7.23953e-09 0)
(0.774992 -7.72064e-09 0)
(0.824994 8.12294e-09 0)
(0.824994 9.16193e-09 0)
(0.824994 5.9765e-09 0)
(0.824994 3.63812e-09 0)
(0.824994 2.15769e-09 0)
(0.824994 1.2358e-09 0)
(0.824994 7.07925e-10 0)
(0.824994 4.13485e-10 0)
(0.824994 2.46579e-10 0)
(0.824994 1.45298e-10 0)
(0.824994 7.21401e-11 0)
(0.824994 1.40135e-12 0)
(0.824994 -8.99087e-11 0)
(0.824994 -2.31412e-10 0)
(0.824994 -4.72971e-10 0)
(0.824994 -9.10662e-10 0)
(0.824994 -1.71409e-09 0)
(0.824994 -3.10026e-09 0)
(0.824994 -5.87995e-09 0)
(0.824994 -6.45936e-09 0)
(0.874995 6.48734e-09 0)
(0.874995 6.99826e-09 0)
(0.874995 4.14168e-09 0)
(0.874995 2.38971e-09 0)
(0.874995 1.37868e-09 0)
(0.874995 7.68757e-10 0)
(0.874995 4.31955e-10 0)
(0.874995 2.49098e-10 0)
(0.874995 1.47183e-10 0)
(0.874995 8.63594e-11 0)
(0.874995 4.31627e-11 0)
(0.874995 1.69296e-12 0)
(0.874995 -5.21736e-11 0)
(0.874995 -1.35948e-10 0)
(0.874995 -2.7934e-10 0)
(0.874995 -5.43525e-10 0)
(0.874995 -1.04921e-09 0)
(0.874995 -1.93792e-09 0)
(0.874995 -4.01541e-09 0)
(0.874995 -4.64161e-09 0)
(0.924997 3.85128e-09 0)
(0.924997 3.87778e-09 0)
(0.924997 1.94641e-09 0)
(0.924997 1.03278e-09 0)
(0.924997 5.76596e-10 0)
(0.924997 3.08326e-10 0)
(0.924997 1.68485e-10 0)
(0.924997 9.59969e-11 0)
(0.924997 5.65853e-11 0)
(0.924997 3.35459e-11 0)
(0.924997 1.73105e-11 0)
(0.924997 1.34707e-12 0)
(0.924997 -2.02101e-11 0)
(0.924997 -5.41497e-11 0)
(0.924997 -1.12431e-10 0)
(0.924997 -2.21988e-10 0)
(0.924997 -4.44451e-10 0)
(0.924997 -8.33647e-10 0)
(0.924997 -2.00551e-09 0)
(0.924997 -2.5307e-09 0)
(0.974999 1.18963e-09 0)
(0.974999 1.11193e-09 0)
(0.974999 4.43252e-10 0)
(0.974999 2.05762e-10 0)
(0.974999 1.10367e-10 0)
(0.974999 5.489e-11 0)
(0.974999 2.87187e-11 0)
(0.974999 1.61754e-11 0)
(0.974999 9.53693e-12 0)
(0.974999 5.7107e-12 0)
(0.974999 3.03146e-12 0)
(0.974999 2.03871e-13 0)
(0.974999 -4.08966e-12 0)
(0.974999 -1.10119e-11 0)
(0.974999 -2.23306e-11 0)
(0.974999 -4.3946e-11 0)
(0.974999 -9.26905e-11 0)
(0.974999 -1.74179e-10 0)
(0.974999 -5.2195e-10 0)
(0.974999 -7.30011e-10 0)
)
;

boundaryField
{
    top
    {
        type            fixedValue;
        value           uniform (1 0 0);
    }
    bottom
    {
        type            fixedValue;
        value           uniform (0 0 0);
    }
    inlet
    {
        type            zeroGradient;
    }
    outlet
    {
        type            zeroGradient;
    }
    frontAndBack
    {
        type            empty;
    }
}


// ************************************************************************* //
