/*--------------------------------*- C++ -*----------------------------------*\
  =========                 |
  \\      /  F ield         | OpenFOAM: The Open Source CFD Toolbox
   \\    /   O peration     | Website:  https://openfoam.org
    \\  /    A nd           | Version:  9
     \\/     M anipulation  |
\*---------------------------------------------------------------------------*/
FoamFile
{
    format      ascii;
    class       volScalarField;
    location    "4.1";
    object      p;
}
// * * * * * * * * * * * * * * * * * * * * * * * * * * * * * * * * * * * * * //

dimensions      [0 2 -2 0 0 0 0];

internalField   nonuniform List<scalar> 
400
(
5.64047e-11
9.34767e-11
9.03864e-11
8.59783e-11
7.8736e-11
7.0157e-11
6.1219e-11
5.2125e-11
4.30268e-11
3.4001e-11
2.50068e-11
1.59862e-11
6.91879e-12
-2.19154e-12
-1.13354e-11
-2.05297e-11
-2.95374e-11
-3.77088e-11
-4.80362e-11
-3.03489e-11
5.34992e-11
8.90704e-11
8.5711e-11
8.31779e-11
7.70373e-11
6.91325e-11
6.06261e-11
5.17934e-11
4.28488e-11
3.39118e-11
2.49688e-11
1.59812e-11
6.9441e-12
-2.12053e-12
-1.11695e-11
-2.01719e-11
-2.8779e-11
-3.5968e-11
-4.68997e-11
-2.95743e-11
5.40886e-11
8.94547e-11
8.30824e-11
8.13644e-11
7.58188e-11
6.83273e-11
6.01296e-11
5.14993e-11
4.2679e-11
3.38157e-11
2.49175e-11
1.59613e-11
6.95302e-12
-2.07371e-12
-1.10546e-11
-1.9947e-11
-2.83895e-11
-3.51158e-11
-4.84069e-11
-3.06609e-11
5.61644e-11
9.33519e-11
8.25279e-11
8.0599e-11
7.51604e-11
6.78055e-11
5.977e-11
5.12638e-11
4.25263e-11
3.37159e-11
2.48533e-11
1.59243e-11
6.93964e-12
-2.06295e-12
-1.10139e-11
-1.98904e-11
-2.83911e-11
-3.51759e-11
-5.14602e-11
-3.23443e-11
5.84391e-11
9.87538e-11
8.30471e-11
8.04253e-11
7.4839e-11
6.74604e-11
5.94957e-11
5.1062e-11
4.23798e-11
3.36099e-11
2.47783e-11
1.58733e-11
6.90657e-12
-2.08366e-12
-1.10322e-11
-1.99498e-11
-2.86276e-11
-3.56764e-11
-5.48767e-11
-3.39446e-11
6.05392e-11
1.04591e-10
8.40978e-11
8.05712e-11
7.47185e-11
6.72214e-11
5.92696e-11
5.08767e-11
4.22343e-11
3.34982e-11
2.46946e-11
1.58111e-11
6.85785e-12
-2.12849e-12
-1.10911e-11
-2.00771e-11
-2.89758e-11
-3.63306e-11
-5.80101e-11
-3.52466e-11
6.23919e-11
1.10272e-10
8.53713e-11
8.08713e-11
7.47055e-11
6.70415e-11
5.90675e-11
5.06979e-11
4.20882e-11
3.33825e-11
2.4605e-11
1.57409e-11
6.7979e-12
-2.1889e-12
-1.11722e-11
-2.02301e-11
-2.93468e-11
-3.69653e-11
-6.05324e-11
-3.62127e-11
6.39237e-11
1.15313e-10
8.66183e-11
8.11811e-11
7.47157e-11
6.68777e-11
5.88692e-11
5.05171e-11
4.19388e-11
3.32637e-11
2.45122e-11
1.56667e-11
6.73302e-12
-2.25458e-12
-1.12551e-11
-2.0368e-11
-2.96601e-11
-3.74511e-11
-6.22154e-11
-3.68068e-11
6.50885e-11
1.19337e-10
8.76367e-11
8.13883e-11
7.46828e-11
6.66976e-11
5.86602e-11
5.03295e-11
4.17859e-11
3.31437e-11
2.44193e-11
1.55931e-11
6.66987e-12
-2.31375e-12
-1.13198e-11
-2.04545e-11
-2.98512e-11
-3.7693e-11
-6.29301e-11
-3.70192e-11
6.58514e-11
1.22068e-10
8.82878e-11
8.14215e-11
7.45679e-11
6.64855e-11
5.84371e-11
5.0136e-11
4.1632e-11
3.30257e-11
2.43297e-11
1.55245e-11
6.61538e-12
-2.35635e-12
-1.13493e-11
-2.0463e-11
-2.98755e-11
-3.76359e-11
-6.26282e-11
-3.68523e-11
6.61877e-11
1.23327e-10
8.84942e-11
8.12526e-11
7.436e-11
6.62433e-11
5.82063e-11
4.99435e-11
4.14829e-11
3.29138e-11
2.42472e-11
1.5465e-11
6.57499e-12
-2.37511e-12
-1.13336e-11
-2.0379e-11
-2.97119e-11
-3.72622e-11
-6.13333e-11
-3.63223e-11
6.60753e-11
1.23027e-10
8.82394e-11
8.08948e-11
7.40758e-11
6.59886e-11
5.79837e-11
4.97639e-11
4.13469e-11
3.28136e-11
2.41754e-11
1.54174e-11
6.55108e-12
-2.36649e-12
-1.12696e-11
-2.02028e-11
-2.93634e-11
-3.659e-11
-5.91297e-11
-3.54539e-11
6.54938e-11
1.21174e-10
8.75694e-11
8.0401e-11
7.37556e-11
6.57525e-11
5.77916e-11
4.96128e-11
4.12337e-11
3.27312e-11
2.41177e-11
1.5383e-11
6.54367e-12
-2.33268e-12
-1.11629e-11
-1.99488e-11
-2.88578e-11
-3.56711e-11
-5.61562e-11
-3.42814e-11
6.44363e-11
1.17893e-10
8.65967e-11
7.9861e-11
7.34585e-11
6.55747e-11
5.76556e-11
4.95065e-11
4.11535e-11
3.26713e-11
2.40759e-11
1.53622e-11
6.54995e-12
-2.28146e-12
-1.10296e-11
-1.96465e-11
-2.82468e-11
-3.45899e-11
-5.26066e-11
-3.28521e-11
6.29062e-11
1.1343e-10
8.5507e-11
7.93963e-11
7.32585e-11
6.54963e-11
5.76003e-11
4.94589e-11
4.11134e-11
3.26383e-11
2.40518e-11
1.53527e-11
6.56499e-12
-2.22424e-12
-1.08929e-11
-1.93388e-11
-2.76048e-11
-3.34623e-11
-4.87282e-11
-3.12274e-11
6.09464e-11
1.08188e-10
8.45428e-11
7.91495e-11
7.32304e-11
6.55544e-11
5.76431e-11
4.94786e-11
4.11176e-11
3.26331e-11
2.4044e-11
1.53514e-11
6.58014e-12
-2.17589e-12
-1.07786e-11
-1.9077e-11
-2.7023e-11
-3.24297e-11
-4.48223e-11
-2.94876e-11
5.85897e-11
1.02718e-10
8.40195e-11
7.92626e-11
7.34429e-11
6.57749e-11
5.77923e-11
4.95662e-11
4.11652e-11
3.26543e-11
2.40509e-11
1.5354e-11
6.58788e-12
-2.15216e-12
-1.07182e-11
-1.89177e-11
-2.66055e-11
-3.16625e-11
-4.12425e-11
-2.77192e-11
5.61803e-11
9.8103e-11
8.44706e-11
7.99646e-11
7.39856e-11
6.61916e-11
5.80565e-11
4.97227e-11
4.12544e-11
3.27e-11
2.40694e-11
1.5356e-11
6.57798e-12
-2.17337e-12
-1.07465e-11
-1.89298e-11
-2.64942e-11
-3.14368e-11
-3.85774e-11
-2.61602e-11
5.4816e-11
9.63664e-11
8.68798e-11
8.16298e-11
7.50163e-11
6.68607e-11
5.84553e-11
4.99543e-11
4.13867e-11
3.27716e-11
2.40997e-11
1.53544e-11
6.54321e-12
-2.25504e-12
-1.08996e-11
-1.91944e-11
-2.68762e-11
-3.21921e-11
-3.78645e-11
-2.55447e-11
5.65077e-11
9.92668e-11
9.12239e-11
8.4176e-11
7.64469e-11
6.77065e-11
5.89367e-11
5.02296e-11
4.15453e-11
3.28592e-11
2.41374e-11
1.53492e-11
6.48887e-12
-2.38436e-12
-1.11541e-11
-1.96718e-11
-2.77222e-11
-3.38944e-11
-3.97209e-11
-2.69631e-11
)
;

boundaryField
{
    top
    {
        type            zeroGradient;
    }
    bottom
    {
        type            zeroGradient;
    }
    inlet
    {
        type            fixedValue;
        value           uniform 0;
    }
    outlet
    {
        type            fixedValue;
        value           uniform 0;
    }
    frontAndBack
    {
        type            empty;
    }
}


// ************************************************************************* //
