/*--------------------------------*- C++ -*----------------------------------*\
  =========                 |
  \\      /  F ield         | OpenFOAM: The Open Source CFD Toolbox
   \\    /   O peration     | Website:  https://openfoam.org
    \\  /    A nd           | Version:  9
     \\/     M anipulation  |
\*---------------------------------------------------------------------------*/
FoamFile
{
    format      ascii;
    class       surfaceScalarField;
    location    "4.1";
    object      phi;
}
// * * * * * * * * * * * * * * * * * * * * * * * * * * * * * * * * * * * * * //

dimensions      [0 3 -1 0 0 0 0];

internalField   nonuniform List<scalar> 
760
(
1.25e-06
-3.45477e-16
1.25e-06
-2.87501e-16
1.25e-06
-1.36931e-16
1.25e-06
-7.78801e-17
1.25e-06
-4.47061e-17
1.25e-06
-2.45694e-17
1.25e-06
-1.34643e-17
1.25e-06
-7.05054e-18
1.25e-06
-3.44223e-18
1.25e-06
-1.56833e-18
1.25e-06
-5.89235e-19
1.25e-06
1.27913e-20
1.25e-06
5.65501e-19
1.25e-06
1.46294e-18
1.25e-06
3.46986e-18
1.25e-06
8.7643e-18
1.25e-06
2.09004e-17
1.25e-06
4.67053e-17
1.25e-06
1.47157e-16
1.69862e-16
3.75e-06
-8.31683e-16
3.75e-06
-7.79353e-16
3.75e-06
-4.45589e-16
3.75e-06
-2.65201e-16
3.75e-06
-1.56504e-16
3.75e-06
-8.90494e-17
3.75e-06
-4.97402e-17
3.75e-06
-2.67788e-17
3.75e-06
-1.36251e-17
3.75e-06
-6.36113e-18
3.75e-06
-2.37266e-18
3.75e-06
2.79467e-20
3.75e-06
2.10917e-18
3.75e-06
5.38152e-18
3.75e-06
1.25318e-17
3.75e-06
2.97718e-17
3.75e-06
6.82438e-17
3.75e-06
1.46524e-16
3.75e-06
3.57116e-16
3.77414e-16
6.25e-06
-1.26495e-15
6.25e-06
-1.26908e-15
6.25e-06
-8.06729e-16
6.25e-06
-4.9957e-16
6.25e-06
-3.02725e-16
6.25e-06
-1.76423e-16
6.25e-06
-1.00121e-16
6.25e-06
-5.47608e-17
6.25e-06
-2.83961e-17
6.25e-06
-1.35157e-17
6.25e-06
-5.22391e-18
6.25e-06
-2.89996e-19
6.25e-06
3.80013e-18
6.25e-06
9.95378e-18
6.25e-06
2.30651e-17
6.25e-06
5.32581e-17
6.25e-06
1.18267e-16
6.25e-06
2.44633e-16
6.25e-06
5.1818e-16
5.18567e-16
8.75e-06
-1.58937e-15
8.75e-06
-1.65539e-15
8.75e-06
-1.12677e-15
8.75e-06
-7.23011e-16
8.75e-06
-4.48709e-16
8.75e-06
-2.66696e-16
8.75e-06
-1.53434e-16
8.75e-06
-8.49231e-17
8.75e-06
-4.45735e-17
8.75e-06
-2.1517e-17
8.75e-06
-8.62492e-18
8.75e-06
-1.10621e-18
8.75e-06
4.76795e-18
8.75e-06
1.31105e-17
8.75e-06
3.05055e-17
8.75e-06
6.94957e-17
8.75e-06
1.51337e-16
8.75e-06
3.02622e-16
8.75e-06
5.91828e-16
5.73983e-16
1.125e-05
-1.77181e-15
1.125e-05
-1.88662e-15
1.125e-05
-1.34801e-15
1.125e-05
-8.90812e-16
1.125e-05
-5.6459e-16
1.125e-05
-3.41203e-16
1.125e-05
-1.98608e-16
1.125e-05
-1.109e-16
1.125e-05
-5.8656e-17
1.125e-05
-2.85861e-17
1.125e-05
-1.18274e-17
1.125e-05
-2.38153e-18
1.125e-05
4.35309e-18
1.125e-05
1.31886e-17
1.125e-05
3.13724e-17
1.125e-05
7.18453e-17
1.125e-05
1.55751e-16
1.125e-05
3.0467e-16
1.125e-05
5.68141e-16
5.38523e-16
1.375e-05
-1.80347e-15
1.375e-05
-1.94519e-15
1.375e-05
-1.44007e-15
1.375e-05
-9.74713e-16
1.375e-05
-6.28936e-16
1.375e-05
-3.85468e-16
1.375e-05
-2.26512e-16
1.375e-05
-1.2724e-16
1.375e-05
-6.7536e-17
1.375e-05
-3.30545e-17
1.375e-05
-1.40489e-17
1.375e-05
-3.91192e-18
1.375e-05
2.28864e-18
1.375e-05
9.34015e-18
1.375e-05
2.4003e-17
1.375e-05
5.75734e-17
1.375e-05
1.28189e-16
1.375e-05
2.49685e-16
1.375e-05
4.56205e-16
4.21795e-16
1.625e-05
-1.69034e-15
1.625e-05
-1.83462e-15
1.625e-05
-1.39486e-15
1.625e-05
-9.62252e-16
1.625e-05
-6.30381e-16
1.625e-05
-3.90887e-16
1.625e-05
-2.31349e-16
1.625e-05
-1.303e-16
1.625e-05
-6.90432e-17
1.625e-05
-3.36932e-17
1.625e-05
-1.46388e-17
1.625e-05
-5.3808e-18
1.625e-05
-1.30751e-18
1.625e-05
1.63471e-18
1.625e-05
8.61067e-18
1.625e-05
2.76488e-17
1.625e-05
7.17983e-17
1.625e-05
1.46509e-16
1.625e-05
2.74089e-16
2.40134e-16
1.875e-05
-1.45069e-15
1.875e-05
-1.57439e-15
1.875e-05
-1.22149e-15
1.875e-05
-8.55444e-16
1.875e-05
-5.67749e-16
1.875e-05
-3.55475e-16
1.875e-05
-2.11342e-16
1.875e-05
-1.18815e-16
1.875e-05
-6.23622e-17
1.875e-05
-2.99934e-17
1.875e-05
-1.32406e-17
1.875e-05
-6.46667e-18
1.875e-05
-5.96346e-18
1.875e-05
-9.06591e-18
1.875e-05
-1.29882e-17
1.875e-05
-1.41169e-17
1.875e-05
-5.69339e-18
1.875e-05
9.70573e-18
1.875e-05
4.51853e-17
1.46743e-17
2.125e-05
-1.11115e-15
2.125e-05
-1.19502e-15
2.125e-05
-9.42578e-16
2.125e-05
-6.68477e-16
2.125e-05
-4.49246e-16
2.125e-05
-2.83727e-16
2.125e-05
-1.68915e-16
2.125e-05
-9.40681e-17
2.125e-05
-4.8162e-17
2.125e-05
-2.22541e-17
2.125e-05
-9.89022e-18
2.125e-05
-6.91913e-18
2.125e-05
-1.10167e-17
2.125e-05
-2.13031e-17
2.125e-05
-3.78892e-17
2.125e-05
-6.20798e-17
2.125e-05
-9.39659e-17
2.125e-05
-1.43315e-16
2.125e-05
-2.05378e-16
-2.31742e-16
2.375e-05
-7.04779e-16
2.375e-05
-7.35159e-16
2.375e-05
-5.90716e-16
2.375e-05
-4.2516e-16
2.375e-05
-2.90812e-16
2.375e-05
-1.85703e-16
2.375e-05
-1.10165e-16
2.375e-05
-5.96612e-17
2.375e-05
-2.85069e-17
2.375e-05
-1.1572e-17
2.375e-05
-5.03409e-18
2.375e-05
-6.64476e-18
2.375e-05
-1.57275e-17
2.375e-05
-3.33513e-17
2.375e-05
-6.2631e-17
2.375e-05
-1.09803e-16
2.375e-05
-1.81768e-16
2.375e-05
-2.94605e-16
2.375e-05
-4.52608e-16
-4.75959e-16
2.625e-05
-2.6878e-16
2.625e-05
-2.38885e-16
2.625e-05
-2.05334e-16
2.625e-05
-1.55961e-16
2.625e-05
-1.13888e-16
2.625e-05
-7.54619e-17
2.625e-05
-4.3884e-17
2.625e-05
-2.08989e-17
2.625e-05
-6.48593e-18
2.625e-05
3.44689e-19
2.625e-05
5.38127e-19
2.625e-05
-5.71275e-18
2.625e-05
-1.94147e-17
2.625e-05
-4.35072e-17
2.625e-05
-8.38016e-17
2.625e-05
-1.50975e-16
2.625e-05
-2.58304e-16
2.625e-05
-4.27308e-16
2.625e-05
-6.73254e-16
-6.96033e-16
2.875e-05
1.57595e-16
2.875e-05
2.46683e-16
2.875e-05
1.70462e-16
2.875e-05
1.05263e-16
2.875e-05
5.741e-17
2.875e-05
3.10104e-17
2.875e-05
1.98704e-17
2.875e-05
1.61181e-17
2.875e-05
1.43377e-17
2.875e-05
1.15112e-17
2.875e-05
5.85442e-18
2.875e-05
-4.34933e-18
2.875e-05
-2.15907e-17
2.875e-05
-5.03193e-17
2.875e-05
-9.84768e-17
2.875e-05
-1.80237e-16
2.875e-05
-3.14348e-16
2.875e-05
-5.26971e-16
2.875e-05
-8.4693e-16
-8.72313e-16
3.125e-05
5.35011e-16
3.125e-05
6.73824e-16
3.125e-05
4.9331e-16
3.125e-05
3.24957e-16
3.125e-05
1.99498e-16
3.125e-05
1.18252e-16
3.125e-05
7.14791e-17
3.125e-05
4.56254e-17
3.125e-05
3.05937e-17
3.125e-05
2.00618e-17
3.125e-05
9.97814e-18
3.125e-05
-2.86564e-18
3.125e-05
-2.19859e-17
3.125e-05
-5.28195e-17
3.125e-05
-1.04606e-16
3.125e-05
-1.93757e-16
3.125e-05
-3.43128e-16
3.125e-05
-5.82568e-16
3.125e-05
-9.57032e-16
-9.88429e-16
3.375e-05
8.26707e-16
3.375e-05
9.97212e-16
3.375e-05
7.23525e-16
3.375e-05
4.74047e-16
3.375e-05
2.92829e-16
3.375e-05
1.74004e-16
3.375e-05
1.03528e-16
3.375e-05
6.33039e-17
3.375e-05
3.98561e-17
3.375e-05
2.4635e-17
3.375e-05
1.21899e-17
3.375e-05
-1.5348e-18
3.375e-05
-2.05944e-17
3.375e-05
-5.06716e-17
3.375e-05
-1.01333e-16
3.375e-05
-1.89731e-16
3.375e-05
-3.4102e-16
3.375e-05
-5.87375e-16
3.375e-05
-9.91655e-16
-1.03224e-15
3.625e-05
1.00031e-15
3.625e-05
1.17716e-15
3.625e-05
8.30205e-16
3.625e-05
5.32609e-16
3.625e-05
3.25634e-16
3.625e-05
1.91601e-16
3.625e-05
1.1242e-16
3.625e-05
6.72392e-17
3.625e-05
4.11174e-17
3.625e-05
2.47315e-17
3.625e-05
1.22319e-17
3.625e-05
-5.75151e-19
3.625e-05
-1.76044e-17
3.625e-05
-4.4192e-17
3.625e-05
-8.91782e-17
3.625e-05
-1.68716e-16
3.625e-05
-3.08153e-16
3.625e-05
-5.39876e-16
3.625e-05
-9.44545e-16
-9.96622e-16
3.875e-05
1.03293e-15
3.875e-05
1.18568e-15
3.875e-05
7.97296e-16
3.875e-05
4.95269e-16
3.875e-05
2.97158e-16
3.875e-05
1.72012e-16
3.875e-05
9.94002e-17
3.875e-05
5.85186e-17
3.875e-05
3.51549e-17
3.875e-05
2.08335e-17
3.875e-05
1.03098e-17
3.875e-05
-2.96556e-20
3.875e-05
-1.34905e-17
3.875e-05
-3.4394e-17
3.875e-05
-6.99432e-17
3.875e-05
-1.33785e-16
3.875e-05
-2.48916e-16
3.875e-05
-4.44844e-16
3.875e-05
-8.16853e-16
-8.80974e-16
4.125e-05
9.1286e-16
4.125e-05
1.01271e-15
4.125e-05
6.32676e-16
4.125e-05
3.75861e-16
4.125e-05
2.20187e-16
4.125e-05
1.24631e-16
4.125e-05
7.08015e-17
4.125e-05
4.11323e-17
4.125e-05
2.44303e-17
4.125e-05
1.43715e-17
4.125e-05
7.14091e-18
4.125e-05
1.63171e-19
4.125e-05
-8.85641e-18
4.125e-05
-2.28656e-17
4.125e-05
-4.68536e-17
4.125e-05
-9.06217e-17
4.125e-05
-1.72361e-16
4.125e-05
-3.14757e-16
4.125e-05
-6.1909e-16
-6.92588e-16
4.375e-05
6.53266e-16
4.375e-05
6.83658e-16
4.375e-05
3.77758e-16
4.375e-05
2.12059e-16
4.375e-05
1.20936e-16
4.375e-05
6.64765e-17
4.375e-05
3.70043e-17
4.375e-05
2.12647e-17
4.375e-05
1.25679e-17
4.375e-05
7.39095e-18
4.375e-05
3.72465e-18
4.375e-05
1.78865e-19
4.375e-05
-4.4741e-18
4.375e-05
-1.17381e-17
4.375e-05
-2.4203e-17
4.375e-05
-4.73233e-17
4.375e-05
-9.25629e-17
4.375e-05
-1.71858e-16
4.375e-05
-3.76703e-16
-4.50764e-16
4.625e-05
2.88682e-16
4.625e-05
2.76799e-16
4.625e-05
1.23466e-16
4.625e-05
6.35338e-17
4.625e-05
3.55798e-17
4.625e-05
1.86479e-17
4.625e-05
1.01066e-17
4.625e-05
5.76223e-18
4.625e-05
3.41042e-18
4.625e-05
2.04115e-18
4.625e-05
1.08721e-18
4.625e-05
1.30326e-19
4.625e-05
-1.22313e-18
4.625e-05
-3.35179e-18
4.625e-05
-6.96028e-18
4.625e-05
-1.37652e-17
4.625e-05
-2.80576e-17
4.625e-05
-5.18816e-17
4.625e-05
-1.37757e-16
-1.86577e-16
4.875e-05
4.875e-05
4.875e-05
4.875e-05
4.875e-05
4.875e-05
4.875e-05
4.875e-05
4.875e-05
4.875e-05
4.875e-05
4.875e-05
4.875e-05
4.875e-05
4.875e-05
4.875e-05
4.875e-05
4.875e-05
4.875e-05
)
;

boundaryField
{
    top
    {
        type            calculated;
        value           uniform 0;
    }
    bottom
    {
        type            calculated;
        value           uniform 0;
    }
    inlet
    {
        type            calculated;
        value           nonuniform List<scalar> 
20
(
-1.25e-06
-3.75e-06
-6.25e-06
-8.75e-06
-1.125e-05
-1.375e-05
-1.625e-05
-1.875e-05
-2.125e-05
-2.375e-05
-2.625e-05
-2.875e-05
-3.125e-05
-3.375e-05
-3.625e-05
-3.875e-05
-4.125e-05
-4.375e-05
-4.625e-05
-4.875e-05
)
;
    }
    outlet
    {
        type            calculated;
        value           nonuniform List<scalar> 
20
(
1.25e-06
3.75e-06
6.25e-06
8.75e-06
1.125e-05
1.375e-05
1.625e-05
1.875e-05
2.125e-05
2.375e-05
2.625e-05
2.875e-05
3.125e-05
3.375e-05
3.625e-05
3.875e-05
4.125e-05
4.375e-05
4.625e-05
4.875e-05
)
;
    }
    frontAndBack
    {
        type            empty;
        value           nonuniform List<scalar> 0();
    }
}


// ************************************************************************* //
