/*--------------------------------*- C++ -*----------------------------------*\
  =========                 |
  \\      /  F ield         | OpenFOAM: The Open Source CFD Toolbox
   \\    /   O peration     | Website:  https://openfoam.org
    \\  /    A nd           | Version:  9
     \\/     M anipulation  |
\*---------------------------------------------------------------------------*/
FoamFile
{
    format      ascii;
    class       volVectorField;
    location    "4.1";
    object      U;
}
// * * * * * * * * * * * * * * * * * * * * * * * * * * * * * * * * * * * * * //

dimensions      [0 1 -1 0 0 0 0];

internalField   nonuniform List<vector> 
400
(
(0.025 -1.69154e-12 0)
(0.025 -1.35406e-12 0)
(0.025 -5.70514e-13 0)
(0.025 -3.04369e-13 0)
(0.025 -1.68e-13 0)
(0.025 -8.90762e-14 0)
(0.025 -4.80123e-14 0)
(0.025 -2.40215e-14 0)
(0.025 -1.08269e-14 0)
(0.025 -4.61817e-15 0)
(0.025 -1.66554e-15 0)
(0.025 2.4664e-16 0)
(0.025 2.22913e-15 0)
(0.025 5.61297e-15 0)
(0.025 1.34049e-14 0)
(0.025 3.55917e-14 0)
(0.025 8.87966e-14 0)
(0.025 2.1147e-13 0)
(0.025 7.42746e-13 0)
(0.025 8.70303e-13 0)
(0.075 -5.8224e-12 0)
(0.075 -5.17732e-12 0)
(0.075 -2.70427e-12 0)
(0.075 -1.55258e-12 0)
(0.075 -8.96747e-13 0)
(0.075 -4.98582e-13 0)
(0.075 -2.74102e-13 0)
(0.075 -1.44955e-13 0)
(0.075 -7.18784e-14 0)
(0.075 -3.26298e-14 0)
(0.075 -1.16109e-14 0)
(0.075 1.09943e-15 0)
(0.075 1.25391e-14 0)
(0.075 3.12197e-14 0)
(0.075 7.31319e-14 0)
(0.075 1.78886e-13 0)
(0.075 4.20624e-13 0)
(0.075 9.35787e-13 0)
(0.075 2.53962e-12 0)
(0.075 2.78733e-12 0)
(0.125 -1.05872e-11 0)
(0.125 -1.02817e-11 0)
(0.125 -6.21026e-12 0)
(0.125 -3.75757e-12 0)
(0.125 -2.24136e-12 0)
(0.125 -1.28883e-12 0)
(0.125 -7.24758e-13 0)
(0.125 -3.92735e-13 0)
(0.125 -2.01507e-13 0)
(0.125 -9.48972e-14 0)
(0.125 -3.5878e-14 0)
(0.125 -3.20767e-16 0)
(0.125 3.02377e-14 0)
(0.125 7.76009e-14 0)
(0.125 1.79826e-13 0)
(0.125 4.20095e-13 0)
(0.125 9.46488e-13 0)
(0.125 1.99706e-12 0)
(0.125 4.49284e-12 0)
(0.125 4.62081e-12 0)
(0.175 -1.45674e-11 0)
(0.175 -1.48986e-11 0)
(0.175 -9.82406e-12 0)
(0.175 -6.18806e-12 0)
(0.175 -3.79076e-12 0)
(0.175 -2.22894e-12 0)
(0.175 -1.27249e-12 0)
(0.175 -6.99974e-13 0)
(0.175 -3.65325e-13 0)
(0.175 -1.7517e-13 0)
(0.175 -6.88045e-14 0)
(0.175 -5.79022e-15 0)
(0.175 4.55013e-14 0)
(0.175 1.21013e-13 0)
(0.175 2.7997e-13 0)
(0.175 6.39832e-13 0)
(0.175 1.40319e-12 0)
(0.175 2.84831e-12 0)
(0.175 5.7523e-12 0)
(0.175 5.67538e-12 0)
(0.225 -1.71778e-11 0)
(0.225 -1.8102e-11 0)
(0.225 -1.26571e-11 0)
(0.225 -8.24486e-12 0)
(0.225 -5.16978e-12 0)
(0.225 -3.09789e-12 0)
(0.225 -1.79246e-12 0)
(0.225 -9.96779e-13 0)
(0.225 -5.25633e-13 0)
(0.225 -2.55226e-13 0)
(0.225 -1.03911e-13 0)
(0.225 -1.66069e-14 0)
(0.225 4.94562e-14 0)
(0.225 1.40462e-13 0)
(0.225 3.28276e-13 0)
(0.225 7.45252e-13 0)
(0.225 1.6112e-12 0)
(0.225 3.17538e-12 0)
(0.225 6.01949e-12 0)
(0.225 5.78061e-12 0)
(0.275 -1.82501e-11 0)
(0.275 -1.95712e-11 0)
(0.275 -1.42721e-11 0)
(0.275 -9.55481e-12 0)
(0.275 -6.11265e-12 0)
(0.275 -3.72145e-12 0)
(0.275 -2.17728e-12 0)
(0.275 -1.22023e-12 0)
(0.275 -6.47299e-13 0)
(0.275 -3.16663e-13 0)
(0.275 -1.32918e-13 0)
(0.275 -3.13627e-14 0)
(0.275 3.71587e-14 0)
(0.275 1.22456e-13 0)
(0.275 2.97336e-13 0)
(0.275 6.87419e-13 0)
(0.275 1.4949e-12 0)
(0.275 2.90066e-12 0)
(0.275 5.31042e-12 0)
(0.275 4.9858e-12 0)
(0.325 -1.7811e-11 0)
(0.325 -1.9284e-11 0)
(0.325 -1.45043e-11 0)
(0.325 -9.92496e-12 0)
(0.325 -6.45762e-12 0)
(0.325 -3.9836e-12 0)
(0.325 -2.35093e-12 0)
(0.325 -1.32372e-12 0)
(0.325 -7.03182e-13 0)
(0.325 -3.44508e-13 0)
(0.325 -1.48331e-13 0)
(0.325 -4.7259e-14 0)
(0.325 7.98438e-15 0)
(0.325 6.33067e-14 0)
(0.325 1.80668e-13 0)
(0.325 4.59953e-13 0)
(0.325 1.06083e-12 0)
(0.325 2.08006e-12 0)
(0.325 3.79081e-12 0)
(0.325 3.44623e-12 0)
(0.375 -1.59905e-11 0)
(0.375 -1.73707e-11 0)
(0.375 -1.33725e-11 0)
(0.375 -9.3088e-12 0)
(0.375 -6.14336e-12 0)
(0.375 -3.8309e-12 0)
(0.375 -2.27461e-12 0)
(0.375 -1.2818e-12 0)
(0.375 -6.77649e-13 0)
(0.375 -3.29563e-13 0)
(0.375 -1.44753e-13 0)
(0.375 -6.08219e-14 0)
(0.375 -3.48011e-14 0)
(0.375 -3.17918e-14 0)
(0.375 -1.04508e-14 0)
(0.375 8.94017e-14 0)
(0.375 3.68643e-13 0)
(0.375 8.40589e-13 0)
(0.375 1.67803e-12 0)
(0.375 1.35546e-12 0)
(0.425 -1.30193e-11 0)
(0.425 -1.40895e-11 0)
(0.425 -1.10433e-11 0)
(0.425 -7.7929e-12 0)
(0.425 -5.20771e-12 0)
(0.425 -3.27702e-12 0)
(0.425 -1.95187e-12 0)
(0.425 -1.09458e-12 0)
(0.425 -5.69845e-13 0)
(0.425 -2.70609e-13 0)
(0.425 -1.20407e-13 0)
(0.425 -6.89592e-14 0)
(0.425 -8.51622e-14 0)
(0.425 -1.50534e-13 0)
(0.425 -2.51012e-13 0)
(0.425 -3.74417e-13 0)
(0.425 -4.86964e-13 0)
(0.425 -6.51974e-13 0)
(0.425 -7.7917e-13 0)
(0.425 -1.06159e-12 0)
(0.475 -9.20077e-12 0)
(0.475 -9.79298e-12 0)
(0.475 -7.80052e-12 0)
(0.475 -5.57382e-12 0)
(0.475 -3.77613e-12 0)
(0.475 -2.39771e-12 0)
(0.475 -1.4271e-12 0)
(0.475 -7.87472e-13 0)
(0.475 -3.93982e-13 0)
(0.475 -1.74902e-13 0)
(0.475 -7.77631e-14 0)
(0.475 -6.98327e-14 0)
(0.475 -1.35716e-13 0)
(0.475 -2.76258e-13 0)
(0.475 -5.07788e-13 0)
(0.475 -8.68637e-13 0)
(0.475 -1.39448e-12 0)
(0.475 -2.2161e-12 0)
(0.475 -3.326e-12 0)
(0.475 -3.57141e-12 0)
(0.525 -4.89218e-12 0)
(0.525 -4.90141e-12 0)
(0.525 -4.01214e-12 0)
(0.525 -2.93071e-12 0)
(0.525 -2.04179e-12 0)
(0.525 -1.31813e-12 0)
(0.525 -7.77781e-13 0)
(0.525 -4.06952e-13 0)
(0.525 -1.76982e-13 0)
(0.525 -5.7097e-14 0)
(0.525 -2.3292e-14 0)
(0.525 -6.33324e-14 0)
(0.525 -1.79078e-13 0)
(0.525 -3.91123e-13 0)
(0.525 -7.4514e-13 0)
(0.525 -1.3274e-12 0)
(0.525 -2.24058e-12 0)
(0.525 -3.67418e-12 0)
(0.525 -5.71771e-12 0)
(0.525 -5.94502e-12 0)
(0.575 -4.80945e-13 0)
(0.575 1.22869e-13 0)
(0.575 -9.91437e-14 0)
(0.575 -1.93798e-13 0)
(0.575 -2.4e-13 0)
(0.575 -1.94195e-13 0)
(0.575 -1.02144e-13 0)
(0.575 -1.26037e-14 0)
(0.575 4.62958e-14 0)
(0.575 6.34044e-14 0)
(0.575 3.37239e-14 0)
(0.575 -5.10688e-14 0)
(0.575 -2.09227e-13 0)
(0.575 -4.788e-13 0)
(0.575 -9.30308e-13 0)
(0.575 -1.69065e-12 0)
(0.575 -2.92272e-12 0)
(0.575 -4.86678e-12 0)
(0.575 -7.73343e-12 0)
(0.575 -7.97185e-12 0)
(0.625 3.63375e-12 0)
(0.625 4.79858e-12 0)
(0.625 3.49709e-12 0)
(0.625 2.29005e-12 0)
(0.625 1.38226e-12 0)
(0.625 8.10392e-13 0)
(0.625 4.96997e-13 0)
(0.625 3.33352e-13 0)
(0.625 2.3942e-13 0)
(0.625 1.66308e-13 0)
(0.625 8.31658e-14 0)
(0.625 -3.59478e-14 0)
(0.625 -2.22292e-13 0)
(0.625 -5.26811e-13 0)
(0.625 -1.03764e-12 0)
(0.625 -1.91112e-12 0)
(0.625 -3.35904e-12 0)
(0.625 -5.66417e-12 0)
(0.625 -9.18576e-12 0)
(0.625 -9.46924e-12 0)
(0.675 7.06623e-12 0)
(0.675 8.65302e-12 0)
(0.675 6.35049e-12 0)
(0.675 4.19691e-12 0)
(0.675 2.60028e-12 0)
(0.675 1.55053e-12 0)
(0.675 9.30121e-13 0)
(0.675 5.77762e-13 0)
(0.675 3.71753e-13 0)
(0.675 2.34519e-13 0)
(0.675 1.16239e-13 0)
(0.675 -2.11299e-14 0)
(0.675 -2.16928e-13 0)
(0.675 -5.28428e-13 0)
(0.675 -1.05214e-12 0)
(0.675 -1.95973e-12 0)
(0.675 -3.49607e-12 0)
(0.675 -5.97557e-12 0)
(0.675 -9.93005e-12 0)
(0.675 -1.02927e-11 0)
(0.725 9.46305e-12 0)
(0.725 1.1251e-11 0)
(0.725 8.09569e-12 0)
(0.725 5.26974e-12 0)
(0.725 3.24881e-12 0)
(0.725 1.92582e-12 0)
(0.725 1.13868e-12 0)
(0.725 6.87435e-13 0)
(0.725 4.24952e-13 0)
(0.725 2.58077e-13 0)
(0.725 1.27683e-13 0)
(0.725 -9.27883e-15 0)
(0.725 -1.94102e-13 0)
(0.725 -4.83508e-13 0)
(0.725 -9.71914e-13 0)
(0.725 -1.82975e-12 0)
(0.725 -3.31518e-12 0)
(0.725 -5.75775e-12 0)
(0.725 -9.87287e-12 0)
(0.725 -1.03436e-11 0)
(0.775 1.05394e-11 0)
(0.775 1.22368e-11 0)
(0.775 8.4768e-12 0)
(0.775 5.36819e-12 0)
(0.775 3.25697e-12 0)
(0.775 1.90362e-12 0)
(0.775 1.10889e-12 0)
(0.775 6.57296e-13 0)
(0.775 3.97474e-13 0)
(0.775 2.36689e-13 0)
(0.775 1.17125e-13 0)
(0.775 -1.76731e-15 0)
(0.775 -1.57218e-13 0)
(0.775 -3.9876e-13 0)
(0.775 -8.08529e-13 0)
(0.775 -1.53889e-12 0)
(0.775 -2.83746e-12 0)
(0.775 -5.02267e-12 0)
(0.775 -8.98253e-12 0)
(0.775 -9.57956e-12 0)
(0.825 1.0079e-11 0)
(0.825 1.13682e-11 0)
(0.825 7.41564e-12 0)
(0.825 4.51425e-12 0)
(0.825 2.67718e-12 0)
(0.825 1.53321e-12 0)
(0.825 8.78245e-13 0)
(0.825 5.12973e-13 0)
(0.825 3.0581e-13 0)
(0.825 1.80179e-13 0)
(0.825 8.93644e-14 0)
(0.825 1.61045e-15 0)
(0.825 -1.11582e-13 0)
(0.825 -2.87079e-13 0)
(0.825 -5.86817e-13 0)
(0.825 -1.12989e-12 0)
(0.825 -2.12664e-12 0)
(0.825 -3.84655e-12 0)
(0.825 -7.29554e-12 0)
(0.825 -8.01456e-12 0)
(0.875 8.04971e-12 0)
(0.875 8.68361e-12 0)
(0.875 5.13931e-12 0)
(0.875 2.96547e-12 0)
(0.875 1.71076e-12 0)
(0.875 9.53811e-13 0)
(0.875 5.35839e-13 0)
(0.875 3.09066e-13 0)
(0.875 1.82632e-13 0)
(0.875 1.07116e-13 0)
(0.875 5.34465e-14 0)
(0.875 1.95663e-15 0)
(0.875 -6.48102e-14 0)
(0.875 -1.68678e-13 0)
(0.875 -3.46627e-13 0)
(0.875 -6.74425e-13 0)
(0.875 -1.30182e-12 0)
(0.875 -2.40453e-12 0)
(0.875 -4.98229e-12 0)
(0.875 -5.75925e-12 0)
(0.925 4.77977e-12 0)
(0.925 4.81343e-12 0)
(0.925 2.41819e-12 0)
(0.925 1.28396e-12 0)
(0.925 7.168e-13 0)
(0.925 3.8328e-13 0)
(0.925 2.09435e-13 0)
(0.925 1.1937e-13 0)
(0.925 7.043e-14 0)
(0.925 4.16748e-14 0)
(0.925 2.14736e-14 0)
(0.925 1.62245e-15 0)
(0.925 -2.52093e-14 0)
(0.925 -6.73727e-14 0)
(0.925 -1.39801e-13 0)
(0.925 -2.76012e-13 0)
(0.925 -5.52375e-13 0)
(0.925 -1.03603e-12 0)
(0.925 -2.48998e-12 0)
(0.925 -3.14084e-12 0)
(0.975 1.47698e-12 0)
(0.975 1.38131e-12 0)
(0.975 5.52687e-13 0)
(0.975 2.57429e-13 0)
(0.975 1.38146e-13 0)
(0.975 6.87916e-14 0)
(0.975 3.60368e-14 0)
(0.975 2.03212e-14 0)
(0.975 1.19732e-14 0)
(0.975 7.14552e-15 0)
(0.975 3.78148e-15 0)
(0.975 2.50625e-16 0)
(0.975 -5.15335e-15 0)
(0.975 -1.37966e-14 0)
(0.975 -2.79535e-14 0)
(0.975 -5.50245e-14 0)
(0.975 -1.15842e-13 0)
(0.975 -2.17622e-13 0)
(0.975 -6.49051e-13 0)
(0.975 -9.06499e-13 0)
)
;

boundaryField
{
    top
    {
        type            fixedValue;
        value           uniform (1 0 0);
    }
    bottom
    {
        type            fixedValue;
        value           uniform (0 0 0);
    }
    inlet
    {
        type            zeroGradient;
    }
    outlet
    {
        type            zeroGradient;
    }
    frontAndBack
    {
        type            empty;
    }
}


// ************************************************************************* //
