/*--------------------------------*- C++ -*----------------------------------*\
  =========                 |
  \\      /  F ield         | OpenFOAM: The Open Source CFD Toolbox
   \\    /   O peration     | Website:  https://openfoam.org
    \\  /    A nd           | Version:  9
     \\/     M anipulation  |
\*---------------------------------------------------------------------------*/
FoamFile
{
    format      ascii;
    class       volScalarField;
    location    "2.8";
    object      p;
}
// * * * * * * * * * * * * * * * * * * * * * * * * * * * * * * * * * * * * * //

dimensions      [0 2 -2 0 0 0 0];

internalField   nonuniform List<scalar> 
400
(
2.94239e-09
4.87645e-09
4.71541e-09
4.48523e-09
4.10728e-09
3.65967e-09
3.19338e-09
2.71896e-09
2.24435e-09
1.77352e-09
1.30435e-09
8.33803e-10
3.60816e-10
-1.14408e-10
-5.91377e-10
-1.07101e-09
-1.54096e-09
-1.96743e-09
-2.50597e-09
-1.58319e-09
2.79051e-09
4.64581e-09
4.47045e-09
4.33845e-09
4.01825e-09
3.60598e-09
3.16232e-09
2.70161e-09
2.23504e-09
1.76886e-09
1.30236e-09
8.33543e-10
3.62139e-10
-1.10694e-10
-5.82691e-10
-1.05224e-09
-1.50113e-09
-1.87599e-09
-2.44628e-09
-1.5426e-09
2.82139e-09
4.66613e-09
4.3337e-09
4.2441e-09
3.95484e-09
3.56407e-09
3.13647e-09
2.68629e-09
2.22619e-09
1.76385e-09
1.29969e-09
8.32506e-10
3.626e-10
-1.08254e-10
-5.76712e-10
-1.04055e-09
-1.48091e-09
-1.83173e-09
-2.52505e-09
-1.59937e-09
2.92972e-09
4.86953e-09
4.30491e-09
4.20428e-09
3.92056e-09
3.53689e-09
3.11773e-09
2.67402e-09
2.21823e-09
1.75864e-09
1.29635e-09
8.30581e-10
3.61901e-10
-1.07697e-10
-5.74592e-10
-1.03762e-09
-1.48104e-09
-1.83495e-09
-2.68437e-09
-1.6872e-09
3.04837e-09
5.15129e-09
4.33197e-09
4.1952e-09
3.90378e-09
3.51889e-09
3.10342e-09
2.66348e-09
2.21059e-09
1.75311e-09
1.29243e-09
8.27923e-10
3.60184e-10
-1.08775e-10
-5.75552e-10
-1.04072e-09
-1.49337e-09
-1.86105e-09
-2.86257e-09
-1.77067e-09
3.15791e-09
5.45576e-09
4.38676e-09
4.20279e-09
3.89749e-09
3.50641e-09
3.09162e-09
2.65381e-09
2.203e-09
1.74728e-09
1.28806e-09
8.24679e-10
3.57645e-10
-1.11113e-10
-5.78626e-10
-1.04736e-09
-1.51152e-09
-1.89517e-09
-3.02602e-09
-1.83858e-09
3.25455e-09
5.75211e-09
4.45319e-09
4.21844e-09
3.8968e-09
3.49703e-09
3.08109e-09
2.64449e-09
2.19537e-09
1.74124e-09
1.28339e-09
8.21024e-10
3.54525e-10
-1.14268e-10
-5.82861e-10
-1.05534e-09
-1.53087e-09
-1.92829e-09
-3.1576e-09
-1.88898e-09
3.33444e-09
6.01505e-09
4.51823e-09
4.23461e-09
3.89733e-09
3.48848e-09
3.07074e-09
2.63507e-09
2.18757e-09
1.73505e-09
1.27854e-09
8.17161e-10
3.51144e-10
-1.17689e-10
-5.87183e-10
-1.06253e-09
-1.54723e-09
-1.95363e-09
-3.24539e-09
-1.91997e-09
3.39519e-09
6.22495e-09
4.57135e-09
4.24542e-09
3.89561e-09
3.47909e-09
3.05985e-09
2.62529e-09
2.1796e-09
1.72879e-09
1.27369e-09
8.13324e-10
3.4786e-10
-1.20777e-10
-5.90552e-10
-1.06705e-09
-1.5572e-09
-1.96625e-09
-3.28267e-09
-1.93104e-09
3.43498e-09
6.3674e-09
4.60531e-09
4.24714e-09
3.8896e-09
3.46803e-09
3.0482e-09
2.6152e-09
2.17158e-09
1.72263e-09
1.26902e-09
8.09748e-10
3.4502e-10
-1.22998e-10
-5.92101e-10
-1.06751e-09
-1.55847e-09
-1.96326e-09
-3.26692e-09
-1.92234e-09
3.45252e-09
6.43306e-09
4.61607e-09
4.23831e-09
3.87877e-09
3.4554e-09
3.03615e-09
2.60515e-09
2.16381e-09
1.7168e-09
1.26472e-09
8.06642e-10
3.42896e-10
-1.23966e-10
-5.91281e-10
-1.06316e-09
-1.54994e-09
-1.94377e-09
-3.19938e-09
-1.89469e-09
3.44666e-09
6.41737e-09
4.60278e-09
4.21964e-09
3.86395e-09
3.44213e-09
3.02453e-09
2.59578e-09
2.15672e-09
1.71159e-09
1.26098e-09
8.04154e-10
3.41636e-10
-1.23523e-10
-5.8795e-10
-1.05397e-09
-1.53176e-09
-1.90872e-09
-3.08443e-09
-1.8494e-09
3.41632e-09
6.32076e-09
4.56783e-09
4.19386e-09
3.84725e-09
3.42982e-09
3.01451e-09
2.5879e-09
2.15083e-09
1.70728e-09
1.25796e-09
8.02364e-10
3.41247e-10
-1.21775e-10
-5.82426e-10
-1.04073e-09
-1.50538e-09
-1.86078e-09
-2.92933e-09
-1.78825e-09
3.36117e-09
6.1496e-09
4.51709e-09
4.1657e-09
3.83176e-09
3.42053e-09
3.00742e-09
2.58235e-09
2.14663e-09
1.70417e-09
1.2558e-09
8.01264e-10
3.41576e-10
-1.19102e-10
-5.75492e-10
-1.02497e-09
-1.47352e-09
-1.80437e-09
-2.74417e-09
-1.7137e-09
3.28136e-09
5.91683e-09
4.46025e-09
4.14147e-09
3.82134e-09
3.41642e-09
3.00455e-09
2.57986e-09
2.14454e-09
1.70244e-09
1.25453e-09
8.00759e-10
3.42334e-10
-1.16119e-10
-5.68336e-10
-1.00892e-09
-1.44004e-09
-1.74555e-09
-2.54187e-09
-1.62895e-09
3.17914e-09
5.64339e-09
4.40997e-09
4.12861e-09
3.81987e-09
3.41946e-09
3.0068e-09
2.58089e-09
2.14475e-09
1.70217e-09
1.25412e-09
8.00679e-10
3.43131e-10
-1.13597e-10
-5.62406e-10
-9.95281e-10
-1.40971e-09
-1.69169e-09
-2.33811e-09
-1.5382e-09
3.05622e-09
5.35808e-09
4.3827e-09
4.13455e-09
3.83095e-09
3.43096e-09
3.0146e-09
2.58548e-09
2.14722e-09
1.70326e-09
1.25445e-09
8.00808e-10
3.43529e-10
-1.12377e-10
-5.5925e-10
-9.86973e-10
-1.38793e-09
-1.65168e-09
-2.15138e-09
-1.44597e-09
2.93049e-09
5.11728e-09
4.40612e-09
4.1711e-09
3.85922e-09
3.45267e-09
3.02838e-09
2.59366e-09
2.15186e-09
1.70563e-09
1.2554e-09
8.00891e-10
3.43001e-10
-1.13476e-10
-5.60715e-10
-9.87577e-10
-1.38207e-09
-1.63983e-09
-2.01229e-09
-1.36461e-09
2.85923e-09
5.02646e-09
4.53143e-09
4.2577e-09
3.91282e-09
3.48748e-09
3.04912e-09
2.60573e-09
2.15879e-09
1.70935e-09
1.25698e-09
8.00805e-10
3.41169e-10
-1.17751e-10
-5.68695e-10
-1.00133e-09
-1.40189e-09
-1.67903e-09
-1.97492e-09
-1.3324e-09
2.94778e-09
5.1784e-09
4.75912e-09
4.39124e-09
3.98779e-09
3.53178e-09
3.07436e-09
2.62015e-09
2.1671e-09
1.71392e-09
1.25897e-09
8.00553e-10
3.38315e-10
-1.24527e-10
-5.82036e-10
-1.02639e-09
-1.44632e-09
-1.76843e-09
-2.07229e-09
-1.4066e-09
)
;

boundaryField
{
    top
    {
        type            zeroGradient;
    }
    bottom
    {
        type            zeroGradient;
    }
    inlet
    {
        type            fixedValue;
        value           uniform 0;
    }
    outlet
    {
        type            fixedValue;
        value           uniform 0;
    }
    frontAndBack
    {
        type            empty;
    }
}


// ************************************************************************* //
