/*--------------------------------*- C++ -*----------------------------------*\
  =========                 |
  \\      /  F ield         | OpenFOAM: The Open Source CFD Toolbox
   \\    /   O peration     | Website:  https://openfoam.org
    \\  /    A nd           | Version:  9
     \\/     M anipulation  |
\*---------------------------------------------------------------------------*/
FoamFile
{
    format      ascii;
    class       surfaceScalarField;
    location    "2.8";
    object      phi;
}
// * * * * * * * * * * * * * * * * * * * * * * * * * * * * * * * * * * * * * //

dimensions      [0 3 -1 0 0 0 0];

internalField   nonuniform List<scalar> 
760
(
1.25e-06
-1.80212e-14
1.25e-06
-1.49971e-14
1.25e-06
-7.14396e-15
1.25e-06
-4.06209e-15
1.25e-06
-2.33175e-15
1.25e-06
-1.2815e-15
1.25e-06
-7.02297e-16
1.25e-06
-3.67778e-16
1.25e-06
-1.79558e-16
1.25e-06
-8.17772e-17
1.25e-06
-3.07089e-17
1.25e-06
6.70488e-19
1.25e-06
2.9554e-17
1.25e-06
7.63762e-17
1.25e-06
1.80972e-16
1.25e-06
4.56999e-16
1.25e-06
1.0898e-15
1.25e-06
2.43752e-15
1.25e-06
7.67603e-15
8.86064e-15
3.74999e-06
-4.33822e-14
3.74999e-06
-4.06529e-14
3.74999e-06
-2.32431e-14
3.74999e-06
-1.38332e-14
3.74999e-06
-8.1634e-15
3.74999e-06
-4.64503e-15
3.74999e-06
-2.59469e-15
3.74999e-06
-1.39706e-15
3.74999e-06
-7.10888e-16
3.74999e-06
-3.31801e-16
3.74999e-06
-1.23738e-16
3.74999e-06
1.49259e-18
3.74999e-06
1.1025e-16
3.74999e-06
2.80929e-16
3.74999e-06
6.53892e-16
3.74999e-06
1.55309e-15
3.74999e-06
3.5596e-15
3.74999e-06
7.64337e-15
3.74999e-06
1.8628e-14
1.96866e-14
6.24998e-06
-6.59826e-14
6.24998e-06
-6.61977e-14
6.24998e-06
-4.20804e-14
6.24998e-06
-2.60583e-14
6.24998e-06
-1.57907e-14
6.24998e-06
-9.20276e-15
6.24998e-06
-5.22286e-15
6.24998e-06
-2.85682e-15
6.24998e-06
-1.48153e-15
6.24998e-06
-7.04982e-16
6.24998e-06
-2.72405e-16
6.24998e-06
-1.50812e-17
6.24998e-06
1.98518e-16
6.24998e-06
5.19668e-16
6.24998e-06
1.20355e-15
6.24998e-06
2.77833e-15
6.24998e-06
6.1691e-15
6.24998e-06
1.27606e-14
6.24998e-06
2.70294e-14
2.70495e-14
8.74998e-06
-8.2905e-14
8.74998e-06
-8.63489e-14
8.74998e-06
-5.87749e-14
8.74998e-06
-3.77134e-14
8.74998e-06
-2.34054e-14
8.74998e-06
-1.39117e-14
8.74998e-06
-8.00391e-15
8.74998e-06
-4.4302e-15
8.74998e-06
-2.32535e-15
8.74998e-06
-1.12242e-15
8.74998e-06
-4.49663e-16
8.74998e-06
-5.7482e-17
8.74998e-06
2.48934e-16
8.74998e-06
6.84338e-16
8.74998e-06
1.59189e-15
8.74998e-06
3.62553e-15
8.74998e-06
7.89424e-15
8.74998e-06
1.57855e-14
8.74998e-06
3.08711e-14
2.99402e-14
1.125e-05
-9.24219e-14
1.125e-05
-9.84107e-14
1.125e-05
-7.0315e-14
1.125e-05
-4.64664e-14
1.125e-05
-2.94499e-14
1.125e-05
-1.77981e-14
1.125e-05
-1.03602e-14
1.125e-05
-5.78528e-15
1.125e-05
-3.0599e-15
1.125e-05
-1.49111e-15
1.125e-05
-6.16759e-16
1.125e-05
-1.23987e-16
1.125e-05
2.27442e-16
1.125e-05
6.88503e-16
1.125e-05
1.63721e-15
1.125e-05
3.74823e-15
1.125e-05
8.12455e-15
1.125e-05
1.58926e-14
1.125e-05
2.96357e-14
2.80906e-14
1.375e-05
-9.40734e-14
1.375e-05
-1.01466e-13
1.375e-05
-7.51175e-14
1.375e-05
-5.0843e-14
1.375e-05
-3.28064e-14
1.375e-05
-2.01071e-14
1.375e-05
-1.18158e-14
1.375e-05
-6.63771e-15
1.375e-05
-3.52291e-15
1.375e-05
-1.72399e-15
1.375e-05
-7.32579e-16
1.375e-05
-2.03781e-16
1.375e-05
1.19639e-16
1.375e-05
4.87798e-16
1.375e-05
1.25286e-15
1.375e-05
3.00388e-15
1.375e-05
6.68718e-15
1.375e-05
1.30246e-14
1.375e-05
2.37968e-14
2.20018e-14
1.625e-05
-8.8172e-14
1.625e-05
-9.56984e-14
1.625e-05
-7.27592e-14
1.625e-05
-5.01932e-14
1.625e-05
-3.28819e-14
1.625e-05
-2.03897e-14
1.625e-05
-1.20679e-14
1.625e-05
-6.79725e-15
1.625e-05
-3.6016e-15
1.625e-05
-1.75738e-15
1.625e-05
-7.63245e-16
1.625e-05
-2.80483e-16
1.625e-05
-6.78887e-17
1.625e-05
8.56524e-17
1.625e-05
4.49965e-16
1.625e-05
1.44319e-15
1.625e-05
3.74588e-15
1.625e-05
7.64271e-15
1.625e-05
1.42972e-14
1.25259e-14
1.875e-05
-7.56713e-14
1.875e-05
-8.21243e-14
1.875e-05
-6.3716e-14
1.875e-05
-4.4622e-14
1.875e-05
-2.9615e-14
1.875e-05
-1.85426e-14
1.875e-05
-1.10243e-14
1.875e-05
-6.19785e-15
1.875e-05
-3.25303e-15
1.875e-05
-1.56425e-15
1.875e-05
-6.90245e-16
1.875e-05
-3.37068e-16
1.875e-05
-3.10942e-16
1.875e-05
-4.72414e-16
1.875e-05
-6.76741e-16
1.875e-05
-7.35276e-16
1.875e-05
-2.96157e-16
1.875e-05
5.06504e-16
1.875e-05
2.35695e-15
7.65442e-16
2.125e-05
-5.79602e-14
2.125e-05
-6.23355e-14
2.125e-05
-4.91676e-14
2.125e-05
-3.48694e-14
2.125e-05
-2.34338e-14
2.125e-05
-1.48e-14
2.125e-05
-8.81073e-15
2.125e-05
-4.90656e-15
2.125e-05
-2.51222e-15
2.125e-05
-1.16052e-15
2.125e-05
-5.15566e-16
2.125e-05
-3.60729e-16
2.125e-05
-5.74378e-16
2.125e-05
-1.11083e-15
2.125e-05
-1.97538e-15
2.125e-05
-3.23697e-15
2.125e-05
-4.90089e-15
2.125e-05
-7.47571e-15
2.125e-05
-1.07129e-14
-1.20882e-14
2.375e-05
-3.67632e-14
2.375e-05
-3.8348e-14
2.375e-05
-3.08136e-14
2.375e-05
-2.21775e-14
2.375e-05
-1.51698e-14
2.375e-05
-9.68671e-15
2.375e-05
-5.74572e-15
2.375e-05
-3.11139e-15
2.375e-05
-1.48667e-15
2.375e-05
-6.03476e-16
2.375e-05
-2.62568e-16
2.375e-05
-3.46406e-16
2.375e-05
-8.19708e-16
2.375e-05
-1.73942e-15
2.375e-05
-3.26613e-15
2.375e-05
-5.72618e-15
2.375e-05
-9.48105e-15
2.375e-05
-1.53674e-14
2.375e-05
-2.36092e-14
-2.48272e-14
2.625e-05
-1.40205e-14
2.625e-05
-1.24613e-14
2.625e-05
-1.07111e-14
2.625e-05
-8.13536e-15
2.625e-05
-5.9409e-15
2.625e-05
-3.93626e-15
2.625e-05
-2.28805e-15
2.625e-05
-1.08928e-15
2.625e-05
-3.37765e-16
2.625e-05
1.81336e-17
2.625e-05
2.77887e-17
2.625e-05
-2.98007e-16
2.625e-05
-1.01211e-15
2.625e-05
-2.26886e-15
2.625e-05
-4.37033e-15
2.625e-05
-7.87427e-15
2.625e-05
-1.34736e-14
2.625e-05
-2.22896e-14
2.625e-05
-3.5119e-14
-3.63068e-14
2.875e-05
8.22001e-15
2.875e-05
1.28667e-14
2.875e-05
8.89112e-15
2.875e-05
5.49107e-15
2.875e-05
2.99456e-15
2.875e-05
1.61779e-15
2.875e-05
1.0375e-15
2.875e-05
8.41942e-16
2.875e-05
7.48468e-16
2.875e-05
6.00737e-16
2.875e-05
3.05026e-16
2.875e-05
-2.27099e-16
2.875e-05
-1.1257e-15
2.875e-05
-2.62411e-15
2.875e-05
-5.13557e-15
2.875e-05
-9.40085e-15
2.875e-05
-1.63972e-14
2.875e-05
-2.74887e-14
2.875e-05
-4.41786e-14
-4.5502e-14
3.125e-05
2.79066e-14
3.125e-05
3.51472e-14
3.125e-05
2.57316e-14
3.125e-05
1.69503e-14
3.125e-05
1.04061e-14
3.125e-05
6.16933e-15
3.125e-05
3.72931e-15
3.125e-05
2.38115e-15
3.125e-05
1.59703e-15
3.125e-05
1.04672e-15
3.125e-05
5.19909e-16
3.125e-05
-1.49378e-16
3.125e-05
-1.14652e-15
3.125e-05
-2.75501e-15
3.125e-05
-5.45586e-15
3.125e-05
-1.01064e-14
3.125e-05
-1.78982e-14
3.125e-05
-3.03889e-14
3.125e-05
-4.99216e-14
-5.15592e-14
3.375e-05
4.31222e-14
3.375e-05
5.20156e-14
3.375e-05
3.77401e-14
3.375e-05
2.47269e-14
3.375e-05
1.52746e-14
3.375e-05
9.07756e-15
3.375e-05
5.40094e-15
3.375e-05
3.30319e-15
3.375e-05
2.07995e-15
3.375e-05
1.28555e-15
3.375e-05
6.35848e-16
3.375e-05
-8.00686e-17
3.375e-05
-1.07359e-15
3.375e-05
-2.64317e-15
3.375e-05
-5.28621e-15
3.375e-05
-9.89659e-15
3.375e-05
-1.77882e-14
3.375e-05
-3.06393e-14
3.375e-05
-5.17277e-14
-5.38449e-14
3.625e-05
5.21776e-14
3.625e-05
6.14019e-14
3.625e-05
4.33046e-14
3.625e-05
2.77816e-14
3.625e-05
1.69861e-14
3.625e-05
9.99512e-15
3.625e-05
5.86462e-15
3.625e-05
3.50846e-15
3.625e-05
2.14574e-15
3.625e-05
1.29056e-15
3.625e-05
6.38138e-16
3.625e-05
-2.96035e-17
3.625e-05
-9.18399e-16
3.625e-05
-2.30548e-15
3.625e-05
-4.65133e-15
3.625e-05
-8.80026e-15
3.625e-05
-1.60739e-14
3.625e-05
-2.81617e-14
3.625e-05
-4.92704e-14
-5.19866e-14
3.875e-05
5.3879e-14
3.875e-05
6.18465e-14
3.875e-05
4.15877e-14
3.875e-05
2.58332e-14
3.875e-05
1.55006e-14
3.875e-05
8.97326e-15
3.875e-05
5.18545e-15
3.875e-05
3.05299e-15
3.875e-05
1.8347e-15
3.875e-05
1.08735e-15
3.875e-05
5.38483e-16
3.875e-05
-1.12599e-18
3.875e-05
-7.03655e-16
3.875e-05
-1.79406e-15
3.875e-05
-3.64854e-15
3.875e-05
-6.97846e-15
3.875e-05
-1.29844e-14
3.875e-05
-2.32043e-14
3.875e-05
-4.26095e-14
-4.59539e-14
4.125e-05
4.76161e-14
4.125e-05
5.28249e-14
4.125e-05
3.30006e-14
4.125e-05
1.96046e-14
4.125e-05
1.14852e-14
4.125e-05
6.50157e-15
4.125e-05
3.69382e-15
4.125e-05
2.14567e-15
4.125e-05
1.27488e-15
4.125e-05
7.50063e-16
4.125e-05
3.7324e-16
4.125e-05
9.39808e-18
4.125e-05
-4.61681e-16
4.125e-05
-1.19312e-15
4.125e-05
-2.44404e-15
4.125e-05
-4.72714e-15
4.125e-05
-8.99119e-15
4.125e-05
-1.64188e-14
4.125e-05
-3.22931e-14
-3.61271e-14
4.375e-05
3.40746e-14
4.375e-05
3.56608e-14
4.375e-05
1.97049e-14
4.375e-05
1.10606e-14
4.375e-05
6.30819e-15
4.375e-05
3.46806e-15
4.375e-05
1.9311e-15
4.375e-05
1.10947e-15
4.375e-05
6.55038e-16
4.375e-05
3.85656e-16
4.375e-05
1.94607e-16
4.375e-05
9.82447e-18
4.375e-05
-2.32947e-16
4.375e-05
-6.11989e-16
4.375e-05
-1.26231e-15
4.375e-05
-2.46839e-15
4.375e-05
-4.82859e-15
4.375e-05
-8.96517e-15
4.375e-05
-1.965e-14
-2.35126e-14
4.625e-05
1.50584e-14
4.625e-05
1.44379e-14
4.625e-05
6.44172e-15
4.625e-05
3.3133e-15
4.625e-05
1.85562e-15
4.625e-05
9.73118e-16
4.625e-05
5.27156e-16
4.625e-05
3.00383e-16
4.625e-05
1.7777e-16
4.625e-05
1.06598e-16
4.625e-05
5.6722e-17
4.625e-05
6.73911e-18
4.625e-05
-6.35055e-17
4.625e-05
-1.74727e-16
4.625e-05
-3.63048e-16
4.625e-05
-7.1774e-16
4.625e-05
-1.46344e-15
4.625e-05
-2.70701e-15
4.625e-05
-7.18642e-15
-9.73255e-15
4.875e-05
4.875e-05
4.875e-05
4.875e-05
4.875e-05
4.875e-05
4.875e-05
4.875e-05
4.875e-05
4.875e-05
4.875e-05
4.875e-05
4.875e-05
4.875e-05
4.875e-05
4.875e-05
4.875e-05
4.875e-05
4.875e-05
)
;

boundaryField
{
    top
    {
        type            calculated;
        value           uniform 0;
    }
    bottom
    {
        type            calculated;
        value           uniform 0;
    }
    inlet
    {
        type            calculated;
        value           nonuniform List<scalar> 
20
(
-1.25e-06
-3.74999e-06
-6.24998e-06
-8.74998e-06
-1.125e-05
-1.375e-05
-1.625e-05
-1.875e-05
-2.125e-05
-2.375e-05
-2.625e-05
-2.875e-05
-3.125e-05
-3.375e-05
-3.625e-05
-3.875e-05
-4.125e-05
-4.375e-05
-4.625e-05
-4.875e-05
)
;
    }
    outlet
    {
        type            calculated;
        value           nonuniform List<scalar> 
20
(
1.25e-06
3.74999e-06
6.24998e-06
8.74998e-06
1.125e-05
1.375e-05
1.625e-05
1.875e-05
2.125e-05
2.375e-05
2.625e-05
2.875e-05
3.125e-05
3.375e-05
3.625e-05
3.875e-05
4.125e-05
4.375e-05
4.625e-05
4.875e-05
)
;
    }
    frontAndBack
    {
        type            empty;
        value           nonuniform List<scalar> 0();
    }
}


// ************************************************************************* //
