/*--------------------------------*- C++ -*----------------------------------*\
  =========                 |
  \\      /  F ield         | OpenFOAM: The Open Source CFD Toolbox
   \\    /   O peration     | Website:  https://openfoam.org
    \\  /    A nd           | Version:  9
     \\/     M anipulation  |
\*---------------------------------------------------------------------------*/
FoamFile
{
    format      ascii;
    class       volVectorField;
    location    "2.8";
    object      U;
}
// * * * * * * * * * * * * * * * * * * * * * * * * * * * * * * * * * * * * * //

dimensions      [0 1 -1 0 0 0 0];

internalField   nonuniform List<vector> 
400
(
(0.0249999 -8.81833e-11 0)
(0.0249999 -7.05274e-11 0)
(0.0249999 -2.96238e-11 0)
(0.0249999 -1.57806e-11 0)
(0.0249999 -8.70359e-12 0)
(0.0249999 -4.61147e-12 0)
(0.0249999 -2.48633e-12 0)
(0.0249999 -1.24478e-12 0)
(0.0249999 -5.61675e-13 0)
(0.0249999 -2.39915e-13 0)
(0.0249999 -8.66426e-14 0)
(0.0249999 1.28e-14 0)
(0.0249999 1.16205e-13 0)
(0.0249999 2.91698e-13 0)
(0.0249999 6.94228e-13 0)
(0.0249999 1.84153e-12 0)
(0.0249999 4.59329e-12 0)
(0.0249999 1.09548e-11 0)
(0.0249999 3.86897e-11 0)
(0.0249999 4.53697e-11 0)
(0.0749998 -3.03652e-10 0)
(0.0749998 -2.69944e-10 0)
(0.0749998 -1.40908e-10 0)
(0.0749998 -8.08768e-11 0)
(0.0749998 -4.67083e-11 0)
(0.0749998 -2.59679e-11 0)
(0.0749998 -1.4278e-11 0)
(0.0749998 -7.55299e-12 0)
(0.0749998 -3.74666e-12 0)
(0.0749998 -1.7009e-12 0)
(0.0749998 -6.05325e-13 0)
(0.0749998 5.73742e-14 0)
(0.0749998 6.55111e-13 0)
(0.0749998 1.62838e-12 0)
(0.0749998 3.81012e-12 0)
(0.0749998 9.31497e-12 0)
(0.0749998 2.18968e-11 0)
(0.0749998 4.87278e-11 0)
(0.0749998 1.32414e-10 0)
(0.0749998 1.45364e-10 0)
(0.125 -5.52252e-10 0)
(0.125 -5.36314e-10 0)
(0.125 -3.23932e-10 0)
(0.125 -1.95996e-10 0)
(0.125 -1.1691e-10 0)
(0.125 -6.72278e-11 0)
(0.125 -3.78065e-11 0)
(0.125 -2.04887e-11 0)
(0.125 -1.05135e-11 0)
(0.125 -4.94987e-12 0)
(0.125 -1.87095e-12 0)
(0.125 -1.63726e-14 0)
(0.125 1.57986e-12 0)
(0.125 4.0512e-12 0)
(0.125 9.38314e-12 0)
(0.125 2.19145e-11 0)
(0.125 4.93688e-11 0)
(0.125 1.04168e-10 0)
(0.125 2.34357e-10 0)
(0.125 2.41032e-10 0)
(0.175 -7.59874e-10 0)
(0.175 -7.77156e-10 0)
(0.175 -5.12455e-10 0)
(0.175 -3.22789e-10 0)
(0.175 -1.97738e-10 0)
(0.175 -1.16272e-10 0)
(0.175 -6.63818e-11 0)
(0.175 -3.65172e-11 0)
(0.175 -1.90598e-11 0)
(0.175 -9.13765e-12 0)
(0.175 -3.58738e-12 0)
(0.175 -3.0068e-13 0)
(0.175 2.37616e-12 0)
(0.175 6.31721e-12 0)
(0.175 1.46099e-11 0)
(0.175 3.33805e-11 0)
(0.175 7.31982e-11 0)
(0.175 1.48583e-10 0)
(0.175 3.00059e-10 0)
(0.175 2.96044e-10 0)
(0.224999 -8.96036e-10 0)
(0.224999 -9.44242e-10 0)
(0.224999 -6.60222e-10 0)
(0.224999 -4.30068e-10 0)
(0.224999 -2.69665e-10 0)
(0.224999 -1.61596e-10 0)
(0.224999 -9.35033e-11 0)
(0.224999 -5.1999e-11 0)
(0.224999 -2.74212e-11 0)
(0.224999 -1.33135e-11 0)
(0.224999 -5.41827e-12 0)
(0.224999 -8.63869e-13 0)
(0.224999 2.58295e-12 0)
(0.224999 7.33211e-12 0)
(0.224999 1.7131e-11 0)
(0.224999 3.88798e-11 0)
(0.224999 8.40462e-11 0)
(0.224999 1.65638e-10 0)
(0.224999 3.13992e-10 0)
(0.224999 3.0153e-10 0)
(0.274999 -9.51969e-10 0)
(0.274999 -1.02088e-09 0)
(0.274999 -7.44464e-10 0)
(0.274999 -4.98397e-10 0)
(0.274999 -3.18845e-10 0)
(0.274999 -1.94121e-10 0)
(0.274999 -1.13576e-10 0)
(0.274999 -6.36551e-11 0)
(0.274999 -3.37664e-11 0)
(0.274999 -1.65169e-11 0)
(0.274999 -6.93117e-12 0)
(0.274999 -1.63329e-12 0)
(0.274999 1.94155e-12 0)
(0.274999 6.39344e-12 0)
(0.274999 1.55177e-11 0)
(0.274999 3.58639e-11 0)
(0.274999 7.79813e-11 0)
(0.274999 1.51309e-10 0)
(0.274999 2.77005e-10 0)
(0.274999 2.60071e-10 0)
(0.324999 -9.29062e-10 0)
(0.324999 -1.0059e-09 0)
(0.324999 -7.56581e-10 0)
(0.324999 -5.17707e-10 0)
(0.324999 -3.36841e-10 0)
(0.324999 -2.07796e-10 0)
(0.324999 -1.22633e-10 0)
(0.324999 -6.90537e-11 0)
(0.324999 -3.66807e-11 0)
(0.324999 -1.79686e-11 0)
(0.324999 -7.7343e-12 0)
(0.324999 -2.46279e-12 0)
(0.324999 4.19405e-13 0)
(0.324999 3.30724e-12 0)
(0.324999 9.43205e-12 0)
(0.324999 2.4001e-11 0)
(0.324999 5.53416e-11 0)
(0.324999 1.08505e-10 0)
(0.324999 1.97738e-10 0)
(0.324999 1.79763e-10 0)
(0.374999 -8.341e-10 0)
(0.374999 -9.06098e-10 0)
(0.374999 -6.97546e-10 0)
(0.374999 -4.85569e-10 0)
(0.374999 -3.2045e-10 0)
(0.374999 -1.9983e-10 0)
(0.374999 -1.18651e-10 0)
(0.374999 -6.68657e-11 0)
(0.374999 -3.5349e-11 0)
(0.374999 -1.71884e-11 0)
(0.374999 -7.54666e-12 0)
(0.374999 -3.17025e-12 0)
(0.374999 -1.81327e-12 0)
(0.374999 -1.65398e-12 0)
(0.374999 -5.37124e-13 0)
(0.374999 4.67381e-12 0)
(0.374999 1.92378e-11 0)
(0.374999 4.3851e-11 0)
(0.374999 8.75303e-11 0)
(0.374999 7.07037e-11 0)
(0.424999 -6.79115e-10 0)
(0.424999 -7.34945e-10 0)
(0.424999 -5.76048e-10 0)
(0.424999 -4.06497e-10 0)
(0.424999 -2.71646e-10 0)
(0.424999 -1.70938e-10 0)
(0.424999 -1.01814e-10 0)
(0.424999 -5.70957e-11 0)
(0.424999 -2.97248e-11 0)
(0.424999 -1.41127e-11 0)
(0.424999 -6.27665e-12 0)
(0.424999 -3.59474e-12 0)
(0.424999 -4.44022e-12 0)
(0.424999 -7.84805e-12 0)
(0.424999 -1.30845e-11 0)
(0.424999 -1.95184e-11 0)
(0.424999 -2.53937e-11 0)
(0.424999 -3.40069e-11 0)
(0.424999 -4.06426e-11 0)
(0.424999 -5.53754e-11 0)
(0.474999 -4.79935e-10 0)
(0.474999 -5.10829e-10 0)
(0.474999 -4.06899e-10 0)
(0.474999 -2.90745e-10 0)
(0.474999 -1.96974e-10 0)
(0.474999 -1.25071e-10 0)
(0.474999 -7.44356e-11 0)
(0.474999 -4.10718e-11 0)
(0.474999 -2.05494e-11 0)
(0.474999 -9.12089e-12 0)
(0.474999 -4.05424e-12 0)
(0.474999 -3.64061e-12 0)
(0.474999 -7.07454e-12 0)
(0.474999 -1.4407e-11 0)
(0.474999 -2.64781e-11 0)
(0.474999 -4.52964e-11 0)
(0.474999 -7.27342e-11 0)
(0.474999 -1.15598e-10 0)
(0.474999 -1.73492e-10 0)
(0.474999 -1.86293e-10 0)
(0.524999 -2.5519e-10 0)
(0.524999 -2.55674e-10 0)
(0.524999 -2.09287e-10 0)
(0.524999 -1.52874e-10 0)
(0.524999 -1.06508e-10 0)
(0.524999 -6.87568e-11 0)
(0.524999 -4.05619e-11 0)
(0.524999 -2.12195e-11 0)
(0.524999 -9.22749e-12 0)
(0.524999 -2.97696e-12 0)
(0.524999 -1.21628e-12 0)
(0.524999 -3.30267e-12 0)
(0.524999 -9.33472e-12 0)
(0.524999 -2.03975e-11 0)
(0.524999 -3.88587e-11 0)
(0.524999 -6.92285e-11 0)
(0.524999 -1.16871e-10 0)
(0.524999 -1.91656e-10 0)
(0.524999 -2.98253e-10 0)
(0.524999 -3.10107e-10 0)
(0.574999 -2.50914e-11 0)
(0.574999 6.40211e-12 0)
(0.574999 -5.17608e-12 0)
(0.574999 -1.01075e-11 0)
(0.574999 -1.25207e-11 0)
(0.574999 -1.01285e-11 0)
(0.574999 -5.31754e-12 0)
(0.574999 -6.46945e-13 0)
(0.574999 2.42085e-12 0)
(0.574999 3.30937e-12 0)
(0.574999 1.75543e-12 0)
(0.574999 -2.66523e-12 0)
(0.574999 -1.09079e-11 0)
(0.574999 -2.4969e-11 0)
(0.574999 -4.8516e-11 0)
(0.574999 -8.81799e-11 0)
(0.574999 -1.52456e-10 0)
(0.574999 -2.53868e-10 0)
(0.574999 -4.034e-10 0)
(0.574999 -4.15831e-10 0)
(0.624999 1.89538e-10 0)
(0.624999 2.50296e-10 0)
(0.624999 1.82411e-10 0)
(0.624999 1.19455e-10 0)
(0.624999 7.21013e-11 0)
(0.624999 4.22786e-11 0)
(0.624999 2.59339e-11 0)
(0.624999 1.74005e-11 0)
(0.624999 1.24978e-11 0)
(0.624999 8.67765e-12 0)
(0.624999 4.33311e-12 0)
(0.624999 -1.87597e-12 0)
(0.624999 -1.1591e-11 0)
(0.624999 -2.74753e-11 0)
(0.624999 -5.41169e-11 0)
(0.624999 -9.96825e-11 0)
(0.624999 -1.75215e-10 0)
(0.624999 -2.95464e-10 0)
(0.624999 -4.79157e-10 0)
(0.624999 -4.93941e-10 0)
(0.674999 3.68583e-10 0)
(0.674999 4.5135e-10 0)
(0.674999 3.3125e-10 0)
(0.674999 2.18917e-10 0)
(0.674999 1.35636e-10 0)
(0.674999 8.08903e-11 0)
(0.674999 4.85247e-11 0)
(0.674999 3.01495e-11 0)
(0.674999 1.94024e-11 0)
(0.674999 1.22371e-11 0)
(0.674999 6.06002e-12 0)
(0.674999 -1.10219e-12 0)
(0.674999 -1.13104e-11 0)
(0.674999 -2.75632e-11 0)
(0.674999 -5.48813e-11 0)
(0.674999 -1.02221e-10 0)
(0.674999 -1.82361e-10 0)
(0.674999 -3.11706e-10 0)
(0.674999 -5.17981e-10 0)
(0.674999 -5.36895e-10 0)
(0.724999 4.93606e-10 0)
(0.724999 5.86862e-10 0)
(0.724999 4.22282e-10 0)
(0.724999 2.74876e-10 0)
(0.724999 1.69466e-10 0)
(0.724999 1.00464e-10 0)
(0.724999 5.94022e-11 0)
(0.724999 3.58693e-11 0)
(0.724999 2.21767e-11 0)
(0.724999 1.34673e-11 0)
(0.724999 6.6606e-12 0)
(0.724999 -4.82161e-13 0)
(0.724999 -1.01223e-11 0)
(0.724999 -2.5223e-11 0)
(0.724999 -5.06976e-11 0)
(0.724999 -9.54411e-11 0)
(0.724999 -1.72926e-10 0)
(0.724999 -3.00341e-10 0)
(0.724999 -5.14999e-10 0)
(0.724999 -5.39551e-10 0)
(0.774999 5.49753e-10 0)
(0.774999 6.3829e-10 0)
(0.774999 4.42162e-10 0)
(0.774999 2.8001e-10 0)
(0.774999 1.69894e-10 0)
(0.774999 9.93055e-11 0)
(0.774999 5.78476e-11 0)
(0.774999 3.42946e-11 0)
(0.774999 2.07428e-11 0)
(0.774999 1.23523e-11 0)
(0.774999 6.11386e-12 0)
(0.774999 -8.80235e-14 0)
(0.774999 -8.20159e-12 0)
(0.774999 -2.08023e-11 0)
(0.774999 -4.21739e-11 0)
(0.774999 -8.02706e-11 0)
(0.774999 -1.4801e-10 0)
(0.774999 -2.61999e-10 0)
(0.774999 -4.68558e-10 0)
(0.774999 -4.99697e-10 0)
(0.825 5.25743e-10 0)
(0.825 5.92989e-10 0)
(0.825 3.86819e-10 0)
(0.825 2.35471e-10 0)
(0.825 1.39653e-10 0)
(0.825 7.99852e-11 0)
(0.825 4.58191e-11 0)
(0.825 2.6762e-11 0)
(0.825 1.59594e-11 0)
(0.825 9.40416e-12 0)
(0.825 4.66913e-12 0)
(0.825 9.08269e-14 0)
(0.825 -5.81884e-12 0)
(0.825 -1.49772e-11 0)
(0.825 -3.06114e-11 0)
(0.825 -5.89396e-11 0)
(0.825 -1.10939e-10 0)
(0.825 -2.00655e-10 0)
(0.825 -3.80562e-10 0)
(0.825 -4.18064e-10 0)
(0.875 4.19881e-10 0)
(0.875 4.5295e-10 0)
(0.875 2.68064e-10 0)
(0.875 1.54671e-10 0)
(0.875 8.92337e-11 0)
(0.875 4.97571e-11 0)
(0.875 2.7958e-11 0)
(0.875 1.6123e-11 0)
(0.875 9.52663e-12 0)
(0.875 5.58972e-12 0)
(0.875 2.79364e-12 0)
(0.875 1.09483e-13 0)
(0.875 -3.37688e-12 0)
(0.875 -8.79909e-12 0)
(0.875 -1.80798e-11 0)
(0.875 -3.51785e-11 0)
(0.875 -6.79072e-11 0)
(0.875 -1.25427e-10 0)
(0.875 -2.59886e-10 0)
(0.875 -3.00415e-10 0)
(0.925 2.49269e-10 0)
(0.925 2.50986e-10 0)
(0.925 1.25985e-10 0)
(0.925 6.6854e-11 0)
(0.925 3.73269e-11 0)
(0.925 1.99633e-11 0)
(0.925 1.09114e-11 0)
(0.925 6.21854e-12 0)
(0.925 3.66626e-12 0)
(0.925 2.17369e-12 0)
(0.925 1.12134e-12 0)
(0.925 8.69036e-14 0)
(0.925 -1.31015e-12 0)
(0.925 -3.50845e-12 0)
(0.925 -7.28196e-12 0)
(0.925 -1.43737e-11 0)
(0.925 -2.87724e-11 0)
(0.925 -5.39627e-11 0)
(0.925 -1.29805e-10 0)
(0.925 -1.63794e-10 0)
(0.975 7.69981e-11 0)
(0.975 7.19706e-11 0)
(0.975 2.86953e-11 0)
(0.975 1.33251e-11 0)
(0.975 7.15001e-12 0)
(0.975 3.55915e-12 0)
(0.975 1.86449e-12 0)
(0.975 1.05155e-12 0)
(0.975 6.20626e-13 0)
(0.975 3.71746e-13 0)
(0.975 1.97082e-13 0)
(0.975 1.30032e-14 0)
(0.975 -2.66548e-13 0)
(0.975 -7.16008e-13 0)
(0.975 -1.44981e-12 0)
(0.975 -2.84973e-12 0)
(0.975 -6.00496e-12 0)
(0.975 -1.12798e-11 0)
(0.975 -3.37855e-11 0)
(0.975 -4.72495e-11 0)
)
;

boundaryField
{
    top
    {
        type            fixedValue;
        value           uniform (1 0 0);
    }
    bottom
    {
        type            fixedValue;
        value           uniform (0 0 0);
    }
    inlet
    {
        type            zeroGradient;
    }
    outlet
    {
        type            zeroGradient;
    }
    frontAndBack
    {
        type            empty;
    }
}


// ************************************************************************* //
