/*--------------------------------*- C++ -*----------------------------------*\
  =========                 |
  \\      /  F ield         | OpenFOAM: The Open Source CFD Toolbox
   \\    /   O peration     | Website:  https://openfoam.org
    \\  /    A nd           | Version:  9
     \\/     M anipulation  |
\*---------------------------------------------------------------------------*/
FoamFile
{
    format      ascii;
    class       volScalarField;
    location    "0.8";
    object      p;
}
// * * * * * * * * * * * * * * * * * * * * * * * * * * * * * * * * * * * * * //

dimensions      [0 2 -2 0 0 0 0];

internalField   nonuniform List<scalar> 
400
(
9.17482e-07
1.48105e-06
1.29991e-06
1.18186e-06
1.05604e-06
9.22977e-07
7.96186e-07
6.72775e-07
5.50353e-07
4.28028e-07
3.03116e-07
1.78659e-07
5.53055e-08
-7.30669e-08
-2.10484e-07
-3.55328e-07
-5.00082e-07
-6.28444e-07
-7.71471e-07
-4.99959e-07
8.69915e-07
1.40862e-06
1.2254e-06
1.14712e-06
1.04139e-06
9.1844e-07
7.96459e-07
6.7546e-07
5.53605e-07
4.31157e-07
3.07007e-07
1.83136e-07
5.96362e-08
-6.85382e-08
-2.03764e-07
-3.43346e-07
-4.78486e-07
-5.87953e-07
-7.35357e-07
-4.76076e-07
8.78333e-07
1.41768e-06
1.1824e-06
1.12537e-06
1.0322e-06
9.15636e-07
7.97047e-07
6.77776e-07
5.56358e-07
4.33935e-07
3.10622e-07
1.87182e-07
6.31846e-08
-6.49929e-08
-1.9818e-07
-3.33571e-07
-4.63082e-07
-5.63335e-07
-7.46525e-07
-4.869e-07
9.12985e-07
1.48431e-06
1.16888e-06
1.11672e-06
1.02892e-06
9.15131e-07
7.97935e-07
6.79377e-07
5.58657e-07
4.36582e-07
3.13723e-07
1.90189e-07
6.55207e-08
-6.2565e-08
-1.93949e-07
-3.26557e-07
-4.5437e-07
-5.54649e-07
-7.87736e-07
-5.10407e-07
9.47774e-07
1.56989e-06
1.17196e-06
1.11607e-06
1.02941e-06
9.15942e-07
7.99143e-07
6.80603e-07
5.60749e-07
4.39129e-07
3.16019e-07
1.91901e-07
6.6787e-08
-6.08133e-08
-1.90556e-07
-3.21402e-07
-4.49606e-07
-5.53598e-07
-8.36175e-07
-5.31806e-07
9.80575e-07
1.66109e-06
1.18397e-06
1.12025e-06
1.03225e-06
9.17329e-07
8.00747e-07
6.82205e-07
5.62613e-07
4.41009e-07
3.17428e-07
1.92747e-07
6.74463e-08
-5.94529e-08
-1.87718e-07
-3.17375e-07
-4.46851e-07
-5.55267e-07
-8.81895e-07
-5.4857e-07
1.0106e-06
1.7489e-06
1.20059e-06
1.1269e-06
1.0366e-06
9.19305e-07
8.02653e-07
6.84048e-07
5.64096e-07
4.42042e-07
3.18003e-07
1.93007e-07
6.77809e-08
-5.83123e-08
-1.85257e-07
-3.14014e-07
-4.44969e-07
-5.57227e-07
-9.19469e-07
-5.60282e-07
1.03693e-06
1.82582e-06
1.21834e-06
1.13432e-06
1.04173e-06
9.21946e-07
8.04806e-07
6.85899e-07
5.65163e-07
4.42378e-07
3.17993e-07
1.92982e-07
6.80802e-08
-5.71349e-08
-1.82864e-07
-3.10764e-07
-4.42878e-07
-5.57633e-07
-9.45207e-07
-5.66738e-07
1.05869e-06
1.88595e-06
1.23461e-06
1.14148e-06
1.0471e-06
9.25145e-07
8.07182e-07
6.87669e-07
5.6592e-07
4.42315e-07
3.17732e-07
1.92973e-07
6.86079e-08
-5.56686e-08
-1.80222e-07
-3.07125e-07
-4.39692e-07
-5.55181e-07
-9.56835e-07
-5.67898e-07
1.07527e-06
1.92526e-06
1.24775e-06
1.14791e-06
1.05244e-06
9.28799e-07
8.098e-07
6.89419e-07
5.66584e-07
4.42207e-07
3.17564e-07
1.93241e-07
6.95559e-08
-5.37456e-08
-1.77123e-07
-3.02768e-07
-4.34852e-07
-5.49159e-07
-9.53422e-07
-5.63938e-07
1.08614e-06
1.94141e-06
1.25698e-06
1.15357e-06
1.05778e-06
9.32933e-07
8.12763e-07
6.91317e-07
5.67422e-07
4.42402e-07
3.17801e-07
1.93992e-07
7.10356e-08
-5.1303e-08
-1.73494e-07
-2.97572e-07
-4.28135e-07
-5.394e-07
-9.35143e-07
-5.55155e-07
1.09078e-06
1.93358e-06
1.26235e-06
1.15887e-06
1.06343e-06
9.37766e-07
8.16292e-07
6.93604e-07
5.6871e-07
4.43195e-07
3.18688e-07
1.95367e-07
7.308e-08
-4.83759e-08
-1.694e-07
-2.91613e-07
-4.19627e-07
-5.26209e-07
-9.03113e-07
-5.4193e-07
1.08868e-06
1.90258e-06
1.26479e-06
1.16467e-06
1.06999e-06
9.4374e-07
8.20736e-07
6.96581e-07
5.70706e-07
4.44805e-07
3.20381e-07
1.9742e-07
7.56417e-08
-4.50863e-08
-1.65017e-07
-2.85144e-07
-4.09714e-07
-5.1035e-07
-8.59322e-07
-5.24747e-07
1.07949e-06
1.85109e-06
1.26613e-06
1.17234e-06
1.07839e-06
9.5149e-07
8.26569e-07
7.00612e-07
5.73666e-07
4.47384e-07
3.22942e-07
2.00119e-07
7.85921e-08
-4.16231e-08
-1.60603e-07
-2.78569e-07
-3.99069e-07
-4.93056e-07
-8.06658e-07
-5.04259e-07
1.06314e-06
1.78402e-06
1.26923e-06
1.18365e-06
1.08973e-06
9.61726e-07
8.34292e-07
7.06078e-07
5.77831e-07
4.51023e-07
3.26342e-07
2.03337e-07
8.17328e-08
-3.82127e-08
-1.56445e-07
-2.7242e-07
-3.88668e-07
-4.76049e-07
-7.48944e-07
-4.81356e-07
1.03995e-06
1.70866e-06
1.27766e-06
1.20051e-06
1.10507e-06
9.74981e-07
8.44227e-07
7.13226e-07
5.83336e-07
4.55702e-07
3.30437e-07
2.06861e-07
8.48168e-08
-3.50926e-08
-1.52819e-07
-2.67312e-07
-3.79769e-07
-4.61459e-07
-6.90811e-07
-4.57112e-07
1.01065e-06
1.63528e-06
1.29582e-06
1.22459e-06
1.12511e-06
9.91377e-07
8.56318e-07
7.22008e-07
5.90099e-07
4.61212e-07
3.34925e-07
2.10408e-07
8.76095e-08
-3.24991e-08
-1.50016e-07
-2.63916e-07
-3.73873e-07
-4.51835e-07
-6.37631e-07
-4.32603e-07
9.81971e-07
1.58441e-06
1.33307e-06
1.2595e-06
1.15141e-06
1.01144e-06
8.70696e-07
7.3247e-07
5.98074e-07
4.67319e-07
3.39455e-07
2.138e-07
9.01419e-08
-3.0611e-08
-1.48571e-07
-2.63136e-07
-3.72908e-07
-4.51331e-07
-5.98261e-07
-4.1092e-07
9.76494e-07
1.59341e-06
1.4074e-06
1.31225e-06
1.18716e-06
1.03661e-06
8.87941e-07
7.44701e-07
6.07083e-07
4.73801e-07
3.43872e-07
2.16913e-07
9.23222e-08
-2.95994e-08
-1.49044e-07
-2.66097e-07
-3.79328e-07
-4.66221e-07
-5.89077e-07
-4.03312e-07
1.03345e-06
1.68929e-06
1.51638e-06
1.38072e-06
1.23054e-06
1.06536e-06
9.06953e-07
7.57762e-07
6.16333e-07
4.80186e-07
3.48026e-07
2.19662e-07
9.40507e-08
-2.93378e-08
-1.51057e-07
-2.7233e-07
-3.92991e-07
-4.96506e-07
-6.22314e-07
-4.27633e-07
)
;

boundaryField
{
    top
    {
        type            zeroGradient;
    }
    bottom
    {
        type            zeroGradient;
    }
    inlet
    {
        type            fixedValue;
        value           uniform 0;
    }
    outlet
    {
        type            fixedValue;
        value           uniform 0;
    }
    frontAndBack
    {
        type            empty;
    }
}


// ************************************************************************* //
