/*--------------------------------*- C++ -*----------------------------------*\
  =========                 |
  \\      /  F ield         | OpenFOAM: The Open Source CFD Toolbox
   \\    /   O peration     | Website:  https://openfoam.org
    \\  /    A nd           | Version:  9
     \\/     M anipulation  |
\*---------------------------------------------------------------------------*/
FoamFile
{
    format      ascii;
    class       surfaceScalarField;
    location    "0.8";
    object      phi;
}
// * * * * * * * * * * * * * * * * * * * * * * * * * * * * * * * * * * * * * //

dimensions      [0 3 -1 0 0 0 0];

internalField   nonuniform List<scalar> 
760
(
1.24827e-06
-5.49324e-12
1.24828e-06
-4.72616e-12
1.24828e-06
-1.78415e-12
1.24828e-06
-8.0981e-13
1.24828e-06
-3.48433e-13
1.24828e-06
-8.48149e-14
1.24828e-06
2.53923e-14
1.24828e-06
7.2577e-14
1.24828e-06
8.27163e-14
1.24828e-06
7.26892e-14
1.24828e-06
7.57023e-14
1.24828e-06
7.53119e-14
1.24828e-06
6.78916e-14
1.24828e-06
7.66452e-14
1.24828e-06
1.2433e-13
1.24828e-06
2.47775e-13
1.24828e-06
5.14164e-13
1.24828e-06
1.05263e-12
1.24828e-06
2.72753e-12
3.23462e-12
3.74487e-06
-1.27316e-11
3.74488e-06
-1.21843e-11
3.74489e-06
-5.79682e-12
3.74489e-06
-2.7467e-12
3.74489e-06
-1.18003e-12
3.74489e-06
-3.026e-13
3.74489e-06
9.47895e-14
3.74489e-06
2.58695e-13
3.74489e-06
3.06122e-13
3.74489e-06
2.91276e-13
3.74489e-06
2.81164e-13
3.74489e-06
2.70439e-13
3.74489e-06
2.67983e-13
3.74489e-06
3.18346e-13
3.74489e-06
4.84419e-13
3.74489e-06
8.85789e-13
3.74488e-06
1.73345e-12
3.74488e-06
3.36425e-12
3.74488e-06
7.06798e-12
7.56107e-12
6.2416e-06
-1.85013e-11
6.24161e-06
-1.87422e-11
6.24161e-06
-9.97208e-12
6.24162e-06
-4.88483e-12
6.24162e-06
-2.07854e-12
6.24162e-06
-4.92672e-13
6.24162e-06
2.60286e-13
6.24162e-06
5.65723e-13
6.24162e-06
6.48077e-13
6.24162e-06
6.1803e-13
6.24162e-06
5.79032e-13
6.24162e-06
5.46815e-13
6.24161e-06
5.48433e-13
6.24161e-06
6.51445e-13
6.24161e-06
9.63396e-13
6.24161e-06
1.68757e-12
6.24161e-06
3.16491e-12
6.24161e-06
5.86764e-12
6.24161e-06
1.09154e-11
1.10038e-11
8.73854e-06
-2.17372e-11
8.73854e-06
-2.27162e-11
8.73855e-06
-1.2974e-11
8.73855e-06
-6.44707e-12
8.73855e-06
-2.645e-12
8.73855e-06
-4.6492e-13
8.73855e-06
5.8888e-13
8.73855e-06
1.00039e-12
8.73855e-06
1.09273e-12
8.73855e-06
1.02771e-12
8.73855e-06
9.39145e-13
8.73855e-06
8.69541e-13
8.73855e-06
8.63558e-13
8.73855e-06
1.00749e-12
8.73855e-06
1.44304e-12
8.73854e-06
2.42963e-12
8.73854e-06
4.38002e-12
8.73854e-06
7.77425e-12
8.73854e-06
1.33531e-11
1.30318e-11
1.12358e-05
-2.23882e-11
1.12358e-05
-2.38131e-11
1.12358e-05
-1.40756e-11
1.12358e-05
-6.90693e-12
1.12358e-05
-2.57227e-12
1.12358e-05
-6.84137e-14
1.12358e-05
1.13764e-12
1.12358e-05
1.5733e-12
1.12358e-05
1.62344e-12
1.12358e-05
1.49227e-12
1.12358e-05
1.3327e-12
1.12358e-05
1.2076e-12
1.12358e-05
1.17412e-12
1.12358e-05
1.32832e-12
1.12358e-05
1.82664e-12
1.12358e-05
2.94524e-12
1.12358e-05
5.10247e-12
1.12358e-05
8.69172e-12
1.12358e-05
1.41111e-11
1.3502e-11
1.37333e-05
-2.045e-11
1.37333e-05
-2.19437e-11
1.37333e-05
-1.29972e-11
1.37333e-05
-5.99872e-12
1.37333e-05
-1.68727e-12
1.37333e-05
7.84819e-13
1.37333e-05
1.93258e-12
1.37333e-05
2.27651e-12
1.37333e-05
2.21722e-12
1.37333e-05
1.98182e-12
1.37333e-05
1.72881e-12
1.37333e-05
1.52974e-12
1.37333e-05
1.44515e-12
1.37333e-05
1.56869e-12
1.37333e-05
2.04935e-12
1.37333e-05
3.14019e-12
1.37333e-05
5.20938e-12
1.37333e-05
8.51363e-12
1.37333e-05
1.31954e-11
1.2445e-11
1.62313e-05
-1.61931e-11
1.62313e-05
-1.73798e-11
1.62313e-05
-9.80828e-12
1.62313e-05
-3.70357e-12
1.62313e-05
3.17415e-14
1.62313e-05
2.09774e-12
1.62313e-05
2.95541e-12
1.62313e-05
3.07831e-12
1.62313e-05
2.83981e-12
1.62313e-05
2.46302e-12
1.62313e-05
2.09654e-12
1.62313e-05
1.80781e-12
1.62313e-05
1.64995e-12
1.62313e-05
1.7013e-12
1.62313e-05
2.0829e-12
1.62313e-05
2.99164e-12
1.62313e-05
4.70623e-12
1.62313e-05
7.3304e-12
1.62313e-05
1.08415e-11
1.00758e-11
1.87298e-05
-1.00701e-11
1.87298e-05
-1.06276e-11
1.87298e-05
-4.8425e-12
1.87297e-05
-2.16157e-13
1.87297e-05
2.46184e-12
1.87297e-05
3.7835e-12
1.87297e-05
4.1386e-12
1.87297e-05
3.92188e-12
1.87297e-05
3.4447e-12
1.87297e-05
2.89849e-12
1.87297e-05
2.40592e-12
1.87297e-05
2.01843e-12
1.87297e-05
1.77157e-12
1.87297e-05
1.71722e-12
1.87297e-05
1.93268e-12
1.87297e-05
2.53579e-12
1.87297e-05
3.69228e-12
1.87297e-05
5.3577e-12
1.87297e-05
7.40952e-12
6.71442e-12
2.12287e-05
-2.66232e-12
2.12287e-05
-2.35516e-12
2.12287e-05
1.37215e-12
2.12287e-05
4.09657e-12
2.12287e-05
5.35604e-12
2.12287e-05
5.67574e-12
2.12287e-05
5.3692e-12
2.12287e-05
4.72795e-12
2.12287e-05
3.9757e-12
2.12287e-05
3.24863e-12
2.12287e-05
2.62945e-12
2.12287e-05
2.1441e-12
2.12287e-05
1.80291e-12
2.12287e-05
1.62373e-12
2.12287e-05
1.63077e-12
2.12287e-05
1.85087e-12
2.12287e-05
2.3265e-12
2.12287e-05
2.87954e-12
2.12287e-05
3.31885e-12
2.73676e-12
2.37282e-05
5.36207e-12
2.37282e-05
6.66077e-12
2.37282e-05
8.17328e-12
2.37281e-05
8.74304e-12
2.37281e-05
8.37478e-12
2.37281e-05
7.54918e-12
2.37281e-05
6.5015e-12
2.37281e-05
5.40271e-12
2.37281e-05
4.37239e-12
2.37281e-05
3.4752e-12
2.37281e-05
2.74423e-12
2.37281e-05
2.17406e-12
2.37281e-05
1.7459e-12
2.37281e-05
1.44067e-12
2.37281e-05
1.22698e-12
2.37281e-05
1.03937e-12
2.37281e-05
7.97189e-13
2.37281e-05
2.05723e-13
2.37282e-05
-9.96854e-13
-1.46139e-12
2.62282e-05
1.32859e-11
2.62282e-05
1.55785e-11
2.62282e-05
1.48191e-11
2.62282e-05
1.31593e-11
2.62281e-05
1.11265e-11
2.62281e-05
9.14868e-12
2.62281e-05
7.37656e-12
2.62281e-05
5.85024e-12
2.62281e-05
4.57806e-12
2.62281e-05
3.54617e-12
2.62281e-05
2.7345e-12
2.62281e-05
2.10502e-12
2.62281e-05
1.61012e-12
2.62281e-05
1.19601e-12
2.62281e-05
7.79765e-13
2.62281e-05
2.11708e-13
2.62281e-05
-7.03219e-13
2.62282e-05
-2.35982e-12
2.62282e-05
-5.11989e-12
-5.49149e-12
2.87287e-05
2.03812e-11
2.87287e-05
2.35336e-11
2.87287e-05
2.05438e-11
2.87287e-05
1.67668e-11
2.87287e-05
1.32161e-11
2.87287e-05
1.02251e-11
2.87287e-05
7.84676e-12
2.87287e-05
5.9881e-12
2.87287e-05
4.54939e-12
2.87287e-05
3.44137e-12
2.87287e-05
2.59446e-12
2.87287e-05
1.94173e-12
2.87287e-05
1.41131e-12
2.87287e-05
9.21474e-13
2.87287e-05
3.47751e-13
2.87287e-05
-5.27925e-13
2.87287e-05
-1.9985e-12
2.87287e-05
-4.54286e-12
2.87287e-05
-8.67044e-12
-8.99382e-12
3.12298e-05
2.59484e-11
3.12298e-05
2.96846e-11
3.12298e-05
2.46197e-11
3.12298e-05
1.90377e-11
3.12298e-05
1.43001e-11
3.12298e-05
1.05755e-11
3.12298e-05
7.80286e-12
3.12298e-05
5.76417e-12
3.12298e-05
4.26627e-12
3.12298e-05
3.15788e-12
3.12298e-05
2.33072e-12
3.12298e-05
1.69734e-12
3.12298e-05
1.16968e-12
3.12298e-05
6.48474e-13
3.12298e-05
-1.76349e-14
3.12298e-05
-1.09314e-12
3.12298e-05
-2.9449e-12
3.12298e-05
-6.11761e-12
3.12298e-05
-1.13239e-11
-1.16556e-11
3.37313e-05
2.936e-11
3.37313e-05
3.32684e-11
3.37313e-05
2.64321e-11
3.37313e-05
1.957e-11
3.37313e-05
1.41469e-11
3.37313e-05
1.00854e-11
3.37313e-05
7.20049e-12
3.37313e-05
5.17206e-12
3.37313e-05
3.74019e-12
3.37313e-05
2.71415e-12
3.37313e-05
1.9638e-12
3.37313e-05
1.39306e-12
3.37313e-05
9.08103e-13
3.37313e-05
4.04473e-13
3.37313e-05
-2.7824e-13
3.37313e-05
-1.42469e-12
3.37313e-05
-3.44455e-12
3.37313e-05
-6.92295e-12
3.37313e-05
-1.28264e-11
-1.32272e-11
3.62333e-05
3.01145e-11
3.62333e-05
3.36763e-11
3.62333e-05
2.55763e-11
3.62333e-05
1.81728e-11
3.62333e-05
1.26978e-11
3.62333e-05
8.76587e-12
3.62334e-05
6.08138e-12
3.62334e-05
4.26194e-12
3.62334e-05
3.01899e-12
3.62334e-05
2.1516e-12
3.62334e-05
1.52799e-12
3.62334e-05
1.05708e-12
3.62334e-05
6.50178e-13
3.62334e-05
2.09996e-13
3.62334e-05
-4.139e-13
3.62334e-05
-1.49777e-12
3.62334e-05
-3.45684e-12
3.62334e-05
-6.87869e-12
3.62334e-05
-1.30116e-11
-1.35378e-11
3.87358e-05
2.79142e-11
3.87358e-05
3.05714e-11
3.87358e-05
2.19829e-11
3.87358e-05
1.49591e-11
3.87358e-05
1.01202e-11
3.87358e-05
6.78086e-12
3.87358e-05
4.58405e-12
3.87358e-05
3.14316e-12
3.87358e-05
2.18607e-12
3.87358e-05
1.53254e-12
3.87358e-05
1.06909e-12
3.87358e-05
7.22219e-13
3.87358e-05
4.18033e-13
3.87358e-05
7.63691e-14
3.87358e-05
-4.25696e-13
3.87358e-05
-1.32744e-12
3.87358e-05
-3.00847e-12
3.87358e-05
-6.00448e-12
3.87358e-05
-1.18244e-11
-1.25154e-11
4.12385e-05
2.2789e-11
4.12386e-05
2.4078e-11
4.12386e-05
1.608e-11
4.12386e-05
1.04302e-11
4.12386e-05
6.83899e-12
4.12386e-05
4.4505e-12
4.12386e-05
2.93738e-12
4.12386e-05
1.97545e-12
4.12386e-05
1.35219e-12
4.12386e-05
9.33711e-13
4.12386e-05
6.39675e-13
4.12386e-05
4.22521e-13
4.12386e-05
2.29704e-13
4.12386e-05
4.21843e-15
4.12386e-05
-3.37242e-13
4.12386e-05
-9.72101e-13
4.12386e-05
-2.2029e-12
4.12386e-05
-4.44468e-12
4.12386e-05
-9.35853e-12
-1.02159e-11
4.37416e-05
1.5297e-11
4.37416e-05
1.51219e-11
4.37416e-05
8.9931e-12
4.37416e-05
5.52829e-12
4.37416e-05
3.52005e-12
4.37416e-05
2.22054e-12
4.37416e-05
1.43142e-12
4.37416e-05
9.46064e-13
4.37416e-05
6.39053e-13
4.37416e-05
4.35198e-13
4.37416e-05
2.92288e-13
4.37416e-05
1.88862e-13
4.37416e-05
9.57664e-14
4.37416e-05
-1.75563e-14
4.37416e-05
-1.93171e-13
4.37416e-05
-5.33966e-13
4.37416e-05
-1.2299e-12
4.37416e-05
-2.50554e-12
4.37416e-05
-5.90957e-12
-6.85126e-12
4.62449e-05
6.41593e-12
4.62449e-05
5.6854e-12
4.62449e-05
2.76802e-12
4.62449e-05
1.5797e-12
4.62449e-05
9.82673e-13
4.62449e-05
5.92227e-13
4.62449e-05
3.69749e-13
4.62449e-05
2.39991e-13
4.62449e-05
1.6072e-13
4.62449e-05
1.07556e-13
4.62449e-05
6.96508e-14
4.62449e-05
4.44796e-14
4.62449e-05
2.09865e-14
4.62449e-05
-1.0564e-14
4.62449e-05
-5.83965e-14
4.62449e-05
-1.55955e-13
4.62449e-05
-3.7321e-13
4.62449e-05
-7.54134e-13
4.62449e-05
-2.21479e-12
-2.88772e-12
4.87483e-05
4.87483e-05
4.87483e-05
4.87483e-05
4.87483e-05
4.87483e-05
4.87483e-05
4.87483e-05
4.87483e-05
4.87483e-05
4.87483e-05
4.87483e-05
4.87483e-05
4.87483e-05
4.87483e-05
4.87483e-05
4.87483e-05
4.87483e-05
4.87483e-05
)
;

boundaryField
{
    top
    {
        type            calculated;
        value           uniform 0;
    }
    bottom
    {
        type            calculated;
        value           uniform 0;
    }
    inlet
    {
        type            calculated;
        value           nonuniform List<scalar> 
20
(
-1.24827e-06
-3.74487e-06
-6.2416e-06
-8.73854e-06
-1.12358e-05
-1.37333e-05
-1.62313e-05
-1.87298e-05
-2.12287e-05
-2.37282e-05
-2.62282e-05
-2.87287e-05
-3.12298e-05
-3.37313e-05
-3.62333e-05
-3.87358e-05
-4.12385e-05
-4.37416e-05
-4.62449e-05
-4.87483e-05
)
;
    }
    outlet
    {
        type            calculated;
        value           nonuniform List<scalar> 
20
(
1.24827e-06
3.74487e-06
6.2416e-06
8.73854e-06
1.12358e-05
1.37333e-05
1.62313e-05
1.87297e-05
2.12287e-05
2.37282e-05
2.62282e-05
2.87287e-05
3.12298e-05
3.37313e-05
3.62334e-05
3.87358e-05
4.12386e-05
4.37416e-05
4.62449e-05
4.87483e-05
)
;
    }
    frontAndBack
    {
        type            empty;
        value           nonuniform List<scalar> 0();
    }
}


// ************************************************************************* //
