/*--------------------------------*- C++ -*----------------------------------*\
  =========                 |
  \\      /  F ield         | OpenFOAM: The Open Source CFD Toolbox
   \\    /   O peration     | Website:  https://openfoam.org
    \\  /    A nd           | Version:  9
     \\/     M anipulation  |
\*---------------------------------------------------------------------------*/
FoamFile
{
    format      ascii;
    class       volVectorField;
    location    "0.8";
    object      U;
}
// * * * * * * * * * * * * * * * * * * * * * * * * * * * * * * * * * * * * * //

dimensions      [0 1 -1 0 0 0 0];

internalField   nonuniform List<vector> 
400
(
(0.0249654 -2.81319e-08 0)
(0.0249655 -2.39517e-08 0)
(0.0249656 -7.97346e-09 0)
(0.0249656 -3.37507e-09 0)
(0.0249656 -1.41627e-09 0)
(0.0249656 -3.43887e-10 0)
(0.0249656 6.75767e-11 0)
(0.0249656 3.37243e-10 0)
(0.0249656 3.02463e-10 0)
(0.0249656 1.85832e-10 0)
(0.0249656 3.10304e-10 0)
(0.0249656 3.8115e-10 0)
(0.0249656 2.99362e-10 0)
(0.0249656 2.6167e-10 0)
(0.0249656 4.3615e-10 0)
(0.0249656 9.72337e-10 0)
(0.0249656 2.13229e-09 0)
(0.0249656 4.6067e-09 0)
(0.0249655 1.33744e-08 0)
(0.0249655 1.61945e-08 0)
(0.0748974 -9.14559e-08 0)
(0.0748975 -8.35709e-08 0)
(0.0748977 -3.59374e-08 0)
(0.0748977 -1.6496e-08 0)
(0.0748978 -7.09809e-09 0)
(0.0748978 -1.83062e-09 0)
(0.0748978 4.26501e-10 0)
(0.0748978 1.33737e-09 0)
(0.0748978 1.63281e-09 0)
(0.0748978 1.53322e-09 0)
(0.0748977 1.50994e-09 0)
(0.0748977 1.47908e-09 0)
(0.0748977 1.43332e-09 0)
(0.0748977 1.6825e-09 0)
(0.0748977 2.63411e-09 0)
(0.0748977 5.04184e-09 0)
(0.0748977 1.02685e-08 0)
(0.0748977 2.08176e-08 0)
(0.0748976 4.83026e-08 0)
(0.0748975 5.40557e-08 0)
(0.124832 -1.59846e-07 0)
(0.124832 -1.57709e-07 0)
(0.124832 -7.97982e-08 0)
(0.124832 -3.84517e-08 0)
(0.124832 -1.65461e-08 0)
(0.124832 -4.28151e-09 0)
(0.124832 1.45727e-09 0)
(0.124832 3.85855e-09 0)
(0.124832 4.48677e-09 0)
(0.124832 4.27654e-09 0)
(0.124832 4.13312e-09 0)
(0.124832 3.97814e-09 0)
(0.124832 3.96003e-09 0)
(0.124832 4.6956e-09 0)
(0.124832 7.07676e-09 0)
(0.124832 1.27288e-08 0)
(0.124832 2.44476e-08 0)
(0.124832 4.64704e-08 0)
(0.124832 9.13256e-08 0)
(0.124832 9.47189e-08 0)
(0.174771 -2.07249e-07 0)
(0.174771 -2.13256e-07 0)
(0.174771 -1.18345e-07 0)
(0.174771 -5.87322e-08 0)
(0.174771 -2.48147e-08 0)
(0.174771 -5.48177e-09 0)
(0.174771 3.74679e-09 0)
(0.174771 7.4297e-09 0)
(0.174771 8.45815e-09 0)
(0.174771 8.08274e-09 0)
(0.174771 7.46945e-09 0)
(0.174771 6.97596e-09 0)
(0.174771 6.99396e-09 0)
(0.174771 8.29428e-09 0)
(0.174771 1.21438e-08 0)
(0.174771 2.09326e-08 0)
(0.174771 3.85742e-08 0)
(0.174771 7.0048e-08 0)
(0.174771 1.2469e-07 0)
(0.174771 1.23717e-07 0)
(0.224715 -2.27251e-07 0)
(0.224715 -2.39724e-07 0)
(0.224715 -1.40359e-07 0)
(0.224715 -6.98929e-08 0)
(0.224715 -2.7952e-08 0)
(0.224715 -3.74556e-09 0)
(0.224715 8.03604e-09 0)
(0.224715 1.2522e-08 0)
(0.224715 1.3398e-08 0)
(0.224715 1.2515e-08 0)
(0.224715 1.13164e-08 0)
(0.224715 1.03761e-08 0)
(0.224715 1.02366e-08 0)
(0.224715 1.18297e-08 0)
(0.224715 1.66881e-08 0)
(0.224715 2.75856e-08 0)
(0.224715 4.88304e-08 0)
(0.224715 8.49427e-08 0)
(0.224715 1.41371e-07 0)
(0.224715 1.3664e-07 0)
(0.274667 -2.20414e-07 0)
(0.274667 -2.35629e-07 0)
(0.274667 -1.40724e-07 0)
(0.274667 -6.80166e-08 0)
(0.274667 -2.34073e-08 0)
(0.274667 2.37602e-09 0)
(0.274667 1.47349e-08 0)
(0.274667 1.8962e-08 0)
(0.274667 1.90861e-08 0)
(0.274667 1.73451e-08 0)
(0.274666 1.53323e-08 0)
(0.274666 1.37522e-08 0)
(0.274666 1.32226e-08 0)
(0.274666 1.47223e-08 0)
(0.274666 1.98278e-08 0)
(0.274666 3.12725e-08 0)
(0.274666 5.31042e-08 0)
(0.274666 8.86467e-08 0)
(0.274666 1.40305e-07 0)
(0.274667 1.33355e-07 0)
(0.324627 -1.8848e-07 0)
(0.324626 -2.02496e-07 0)
(0.324626 -1.18874e-07 0)
(0.324626 -5.17879e-08 0)
(0.324626 -1.02581e-08 0)
(0.324626 1.33247e-08 0)
(0.324626 2.39275e-08 0)
(0.324626 2.65914e-08 0)
(0.324626 2.52629e-08 0)
(0.324626 2.22792e-08 0)
(0.324626 1.92228e-08 0)
(0.324626 1.6817e-08 0)
(0.324626 1.56557e-08 0)
(0.324626 1.66289e-08 0)
(0.324626 2.11301e-08 0)
(0.324626 3.14766e-08 0)
(0.324626 5.09751e-08 0)
(0.324626 8.14405e-08 0)
(0.324626 1.23232e-07 0)
(0.324626 1.15523e-07 0)
(0.374595 -1.35282e-07 0)
(0.374595 -1.44509e-07 0)
(0.374595 -7.70296e-08 0)
(0.374595 -2.21748e-08 0)
(0.374595 1.09523e-08 0)
(0.374595 2.8646e-08 0)
(0.374595 3.51859e-08 0)
(0.374595 3.49835e-08 0)
(0.374595 3.15249e-08 0)
(0.374595 2.69563e-08 0)
(0.374595 2.26796e-08 0)
(0.374595 1.9313e-08 0)
(0.374595 1.73197e-08 0)
(0.374595 1.73738e-08 0)
(0.374595 2.04975e-08 0)
(0.374595 2.83067e-08 0)
(0.374595 4.3061e-08 0)
(0.374595 6.50361e-08 0)
(0.374595 9.33686e-08 0)
(0.374595 8.59895e-08 0)
(0.424574 -6.60495e-08 0)
(0.424574 -6.76388e-08 0)
(0.424574 -1.96504e-08 0)
(0.424574 1.79055e-08 0)
(0.424574 3.83146e-08 0)
(0.424574 4.70355e-08 0)
(0.424574 4.75841e-08 0)
(0.424574 4.34481e-08 0)
(0.424574 3.73506e-08 0)
(0.424574 3.09835e-08 0)
(0.424574 2.54095e-08 0)
(0.424574 2.10325e-08 0)
(0.424574 1.80938e-08 0)
(0.424574 1.69539e-08 0)
(0.424574 1.81349e-08 0)
(0.424574 2.23759e-08 0)
(0.424574 3.07281e-08 0)
(0.424574 4.20462e-08 0)
(0.424574 5.47283e-08 0)
(0.424574 4.83192e-08 0)
(0.474564 1.28663e-08 0)
(0.474563 2.07746e-08 0)
(0.474563 4.71751e-08 0)
(0.474563 6.40329e-08 0)
(0.474563 6.8806e-08 0)
(0.474563 6.64755e-08 0)
(0.474563 5.97878e-08 0)
(0.474563 5.1094e-08 0)
(0.474563 4.21397e-08 0)
(0.474563 3.39597e-08 0)
(0.474563 2.71535e-08 0)
(0.474563 2.18315e-08 0)
(0.474563 1.79537e-08 0)
(0.474563 1.55134e-08 0)
(0.474563 1.44722e-08 0)
(0.474563 1.46284e-08 0)
(0.474563 1.5779e-08 0)
(0.474563 1.55277e-08 0)
(0.474563 1.16669e-08 0)
(0.474563 6.44986e-09 0)
(0.524564 9.44385e-08 0)
(0.524563 1.12525e-07 0)
(0.524563 1.16288e-07 0)
(0.524563 1.1079e-07 0)
(0.524563 9.8659e-08 0)
(0.524563 8.4484e-08 0)
(0.524563 7.02182e-08 0)
(0.524563 5.6936e-08 0)
(0.524563 4.52833e-08 0)
(0.524563 3.55194e-08 0)
(0.524563 2.7711e-08 0)
(0.524563 2.16381e-08 0)
(0.524563 1.69609e-08 0)
(0.524563 1.33021e-08 0)
(0.524563 1.00722e-08 0)
(0.524563 6.16601e-09 0)
(0.524563 1.739e-10 0)
(0.524563 -1.13815e-08 0)
(0.524563 -3.14909e-08 0)
(0.524563 -3.56343e-08 0)
(0.574574 1.71341e-07 0)
(0.574574 1.98966e-07 0)
(0.574574 1.80005e-07 0)
(0.574574 1.52311e-07 0)
(0.574574 1.2381e-07 0)
(0.574574 9.84448e-08 0)
(0.574574 7.72771e-08 0)
(0.574574 6.00392e-08 0)
(0.574574 4.62543e-08 0)
(0.574574 3.53857e-08 0)
(0.574574 2.69669e-08 0)
(0.574574 2.04584e-08 0)
(0.574574 1.52461e-08 0)
(0.574574 1.0629e-08 0)
(0.574574 5.53978e-09 0)
(0.574574 -1.90646e-09 0)
(0.574574 -1.41986e-08 0)
(0.574574 -3.57369e-08 0)
(0.574574 -7.07058e-08 0)
(0.574574 -7.41411e-08 0)
(0.624596 2.36327e-07 0)
(0.624595 2.71437e-07 0)
(0.624595 2.30687e-07 0)
(0.624595 1.82891e-07 0)
(0.624595 1.40423e-07 0)
(0.624595 1.05995e-07 0)
(0.624595 7.96127e-08 0)
(0.624595 5.96889e-08 0)
(0.624595 4.4711e-08 0)
(0.624595 3.34296e-08 0)
(0.624595 2.49187e-08 0)
(0.624595 1.8381e-08 0)
(0.624595 1.29929e-08 0)
(0.624595 7.81889e-09 0)
(0.624595 1.44094e-09 0)
(0.624595 -8.61031e-09 0)
(0.624595 -2.57016e-08 0)
(0.624595 -5.49949e-08 0)
(0.624595 -1.02413e-07 0)
(0.624595 -1.05664e-07 0)
(0.674627 2.82648e-07 0)
(0.674626 3.21763e-07 0)
(0.674627 2.61422e-07 0)
(0.674626 1.97687e-07 0)
(0.674626 1.45471e-07 0)
(0.674626 1.05449e-07 0)
(0.674626 7.6399e-08 0)
(0.674626 5.55614e-08 0)
(0.674627 4.05947e-08 0)
(0.674627 2.97221e-08 0)
(0.674627 2.17005e-08 0)
(0.674627 1.55791e-08 0)
(0.674627 1.04207e-08 0)
(0.674627 5.17387e-09 0)
(0.674627 -1.76328e-09 0)
(0.674627 -1.31973e-08 0)
(0.674627 -3.30971e-08 0)
(0.674627 -6.71845e-08 0)
(0.674627 -1.23683e-07 0)
(0.674627 -1.27352e-07 0)
(0.724667 3.04517e-07 0)
(0.724667 3.42872e-07 0)
(0.724667 2.66861e-07 0)
(0.724667 1.93524e-07 0)
(0.724667 1.37365e-07 0)
(0.724667 9.62094e-08 0)
(0.724667 6.75842e-08 0)
(0.724667 4.78612e-08 0)
(0.724667 3.42002e-08 0)
(0.724667 2.45655e-08 0)
(0.724667 1.75907e-08 0)
(0.724667 1.23039e-08 0)
(0.724667 7.76654e-09 0)
(0.724667 2.94113e-09 0)
(0.724667 -3.77065e-09 0)
(0.724667 -1.52327e-08 0)
(0.724667 -3.56682e-08 0)
(0.724667 -7.10622e-08 0)
(0.724667 -1.32382e-07 0)
(0.724667 -1.37076e-07 0)
(0.774715 2.97684e-07 0)
(0.774715 3.2962e-07 0)
(0.774715 2.44224e-07 0)
(0.774716 1.69763e-07 0)
(0.774716 1.16521e-07 0)
(0.774716 7.90974e-08 0)
(0.774716 5.40524e-08 0)
(0.774716 3.73867e-08 0)
(0.774716 2.61915e-08 0)
(0.774716 1.8488e-08 0)
(0.774716 1.29981e-08 0)
(0.774716 8.8658e-09 0)
(0.774716 5.2621e-09 0)
(0.774716 1.28503e-09 0)
(0.774716 -4.47531e-09 0)
(0.774716 -1.46547e-08 0)
(0.774716 -3.3321e-08 0)
(0.774716 -6.6259e-08 0)
(0.774716 -1.2731e-07 0)
(0.774716 -1.33563e-07 0)
(0.824771 2.59814e-07 0)
(0.824771 2.79741e-07 0)
(0.824771 1.94493e-07 0)
(0.824771 1.29056e-07 0)
(0.824771 8.5727e-08 0)
(0.824771 5.64662e-08 0)
(0.824771 3.76164e-08 0)
(0.824771 2.54742e-08 0)
(0.824771 1.75354e-08 0)
(0.824771 1.2184e-08 0)
(0.824771 8.41485e-09 0)
(0.824771 5.59649e-09 0)
(0.824771 3.10109e-09 0)
(0.824771 2.6378e-10 0)
(0.824771 -3.98645e-09 0)
(0.824771 -1.18061e-08 0)
(0.824771 -2.66556e-08 0)
(0.824771 -5.34128e-08 0)
(0.824771 -1.08287e-07 0)
(0.824771 -1.16413e-07 0)
(0.874832 1.93316e-07 0)
(0.874832 1.98067e-07 0)
(0.874832 1.253e-07 0)
(0.874832 7.88447e-08 0)
(0.874833 5.0731e-08 0)
(0.874833 3.24e-08 0)
(0.874833 2.10729e-08 0)
(0.874833 1.40235e-08 0)
(0.874833 9.52165e-09 0)
(0.874833 6.50816e-09 0)
(0.874833 4.39251e-09 0)
(0.874833 2.86648e-09 0)
(0.874833 1.50291e-09 0)
(0.874833 -1.62316e-10 0)
(0.874833 -2.70454e-09 0)
(0.874833 -7.52514e-09 0)
(0.874833 -1.71558e-08 0)
(0.874833 -3.48479e-08 0)
(0.874833 -7.72368e-08 0)
(0.874833 -8.67075e-08 0)
(0.924897 1.08008e-07 0)
(0.924897 1.01654e-07 0)
(0.924898 5.48054e-08 0)
(0.924898 3.1934e-08 0)
(0.924898 1.98535e-08 0)
(0.924898 1.2163e-08 0)
(0.924898 7.66317e-09 0)
(0.924898 4.98576e-09 0)
(0.924898 3.33141e-09 0)
(0.924898 2.23899e-09 0)
(0.924898 1.46867e-09 0)
(0.924898 9.19263e-10 0)
(0.924898 4.19536e-10 0)
(0.924898 -2.02713e-10 0)
(0.924898 -1.19417e-09 0)
(0.924898 -3.19771e-09 0)
(0.924898 -7.45328e-09 0)
(0.924898 -1.5259e-08 0)
(0.924898 -3.97205e-08 0)
(0.924898 -4.84251e-08 0)
(0.974965 3.19415e-08 0)
(0.974965 2.72613e-08 0)
(0.974966 1.15736e-08 0)
(0.974966 6.00333e-09 0)
(0.974966 3.60057e-09 0)
(0.974966 2.05767e-09 0)
(0.974966 1.24482e-09 0)
(0.974966 8.1433e-10 0)
(0.974966 5.56478e-10 0)
(0.974966 3.52137e-10 0)
(0.974966 1.92665e-10 0)
(0.974966 1.28507e-10 0)
(0.974966 7.47437e-11 0)
(0.974966 -6.49375e-11 0)
(0.974966 -2.62872e-10 0)
(0.974966 -6.68423e-10 0)
(0.974966 -1.65941e-09 0)
(0.974966 -3.40838e-09 0)
(0.974966 -1.1012e-08 0)
(0.974966 -1.44084e-08 0)
)
;

boundaryField
{
    top
    {
        type            fixedValue;
        value           uniform (1 0 0);
    }
    bottom
    {
        type            fixedValue;
        value           uniform (0 0 0);
    }
    inlet
    {
        type            zeroGradient;
    }
    outlet
    {
        type            zeroGradient;
    }
    frontAndBack
    {
        type            empty;
    }
}


// ************************************************************************* //
