/*--------------------------------*- C++ -*----------------------------------*\
  =========                 |
  \\      /  F ield         | OpenFOAM: The Open Source CFD Toolbox
   \\    /   O peration     | Website:  https://openfoam.org
    \\  /    A nd           | Version:  9
     \\/     M anipulation  |
\*---------------------------------------------------------------------------*/
FoamFile
{
    format      ascii;
    class       volScalarField;
    location    "0.2";
    object      p;
}
// * * * * * * * * * * * * * * * * * * * * * * * * * * * * * * * * * * * * * //

dimensions      [0 2 -2 0 0 0 0];

internalField   nonuniform List<scalar> 
400
(
1.14718e-06
2.18995e-06
2.38125e-06
2.30197e-06
2.08195e-06
1.80745e-06
1.53864e-06
1.29146e-06
1.05759e-06
8.37654e-07
6.23542e-07
4.12536e-07
2.07132e-07
-3.9186e-09
-2.3801e-07
-4.9946e-07
-7.65444e-07
-9.77273e-07
-1.08037e-06
-6.75697e-07
1.04468e-06
1.99483e-06
2.16202e-06
2.1199e-06
1.94791e-06
1.71949e-06
1.48458e-06
1.26118e-06
1.04247e-06
8.30318e-07
6.22997e-07
4.19161e-07
2.20171e-07
1.6795e-08
-2.03786e-07
-4.43257e-07
-6.80579e-07
-8.6204e-07
-9.70929e-07
-6.13631e-07
9.95911e-07
1.90579e-06
2.02239e-06
1.99245e-06
1.84753e-06
1.64973e-06
1.43976e-06
1.23493e-06
1.02906e-06
8.24329e-07
6.23921e-07
4.26808e-07
2.32577e-07
3.44054e-08
-1.75613e-07
-3.98042e-07
-6.16552e-07
-7.84697e-07
-9.29024e-07
-5.94597e-07
9.74254e-07
1.89566e-06
1.9432e-06
1.90739e-06
1.77361e-06
1.59469e-06
1.40235e-06
1.2111e-06
1.01675e-06
8.20185e-07
6.26193e-07
4.33959e-07
2.4271e-07
4.85245e-08
-1.52688e-07
-3.62273e-07
-5.70508e-07
-7.39924e-07
-9.36281e-07
-5.92857e-07
9.54442e-07
1.91815e-06
1.89723e-06
1.84813e-06
1.71667e-06
1.54846e-06
1.36993e-06
1.18951e-06
1.00565e-06
8.17479e-07
6.28239e-07
4.38419e-07
2.49302e-07
5.9646e-08
-1.33e-07
-3.32179e-07
-5.34778e-07
-7.12049e-07
-9.62077e-07
-5.89334e-07
9.34222e-07
1.95384e-06
1.87016e-06
1.80464e-06
1.67099e-06
1.5079e-06
1.34088e-06
1.17099e-06
9.96058e-07
8.14183e-07
6.2786e-07
4.39497e-07
2.52826e-07
6.84965e-08
-1.157e-07
-3.05968e-07
-5.05119e-07
-6.92019e-07
-9.91845e-07
-5.81252e-07
9.18092e-07
1.9964e-06
1.85821e-06
1.77421e-06
1.63609e-06
1.47518e-06
1.31701e-06
1.15624e-06
9.87822e-07
8.09585e-07
6.24693e-07
4.37593e-07
2.53881e-07
7.51977e-08
-1.01199e-07
-2.84003e-07
-4.80939e-07
-6.76958e-07
-1.01889e-06
-5.69996e-07
9.08244e-07
2.03792e-06
1.85604e-06
1.75437e-06
1.61153e-06
1.45176e-06
1.29974e-06
1.14544e-06
9.8084e-07
8.04064e-07
6.19759e-07
4.34106e-07
2.53763e-07
8.05937e-08
-8.90551e-08
-2.65825e-07
-4.61116e-07
-6.64329e-07
-1.03836e-06
-5.57122e-07
9.0549e-07
2.07147e-06
1.85901e-06
1.74384e-06
1.59743e-06
1.43838e-06
1.2898e-06
1.13877e-06
9.75425e-07
7.98624e-07
6.14627e-07
4.30759e-07
2.53947e-07
8.57235e-08
-7.85866e-08
-2.50822e-07
-4.44645e-07
-6.52252e-07
-1.04697e-06
-5.44074e-07
9.10388e-07
2.09309e-06
1.86471e-06
1.7424e-06
1.59422e-06
1.43528e-06
1.28734e-06
1.1364e-06
9.72115e-07
7.944e-07
6.10786e-07
4.28973e-07
2.55474e-07
9.11661e-08
-6.95317e-08
-2.38793e-07
-4.31085e-07
-6.39771e-07
-1.04303e-06
-5.3206e-07
9.23192e-07
2.10153e-06
1.87256e-06
1.7503e-06
1.60213e-06
1.44221e-06
1.29207e-06
1.13833e-06
9.71408e-07
7.92341e-07
6.09315e-07
4.29592e-07
2.58736e-07
9.68854e-08
-6.2139e-08
-2.29936e-07
-4.20433e-07
-6.26658e-07
-1.02609e-06
-5.2183e-07
9.43384e-07
2.09724e-06
1.88299e-06
1.76781e-06
1.62109e-06
1.45871e-06
1.30361e-06
1.14456e-06
9.73717e-07
7.93105e-07
6.10811e-07
4.32885e-07
2.63582e-07
1.02422e-07
-5.69164e-08
-2.24572e-07
-4.12842e-07
-6.13173e-07
-9.96807e-07
-5.13619e-07
9.69428e-07
2.08186e-06
1.89726e-06
1.7955e-06
1.65124e-06
1.48475e-06
1.32207e-06
1.15552e-06
9.79662e-07
7.97265e-07
6.15548e-07
4.38718e-07
2.69534e-07
1.07168e-07
-5.43524e-08
-2.2292e-07
-4.08502e-07
-6.00093e-07
-9.57032e-07
-5.07314e-07
9.98935e-07
2.05847e-06
1.91783e-06
1.83491e-06
1.69366e-06
1.52138e-06
1.34866e-06
1.17255e-06
9.90484e-07
8.05636e-07
6.23747e-07
4.46773e-07
2.76014e-07
1.10613e-07
-5.47258e-08
-2.25066e-07
-4.07759e-07
-5.88955e-07
-9.10192e-07
-5.02733e-07
1.02909e-06
2.03215e-06
1.94879e-06
1.88884e-06
1.75051e-06
1.57058e-06
1.38544e-06
1.19771e-06
1.00789e-06
8.19235e-07
6.35608e-07
4.56633e-07
2.82459e-07
1.125e-07
-5.80045e-08
-2.31093e-07
-4.11357e-07
-5.82192e-07
-8.61353e-07
-4.99764e-07
1.05695e-06
2.01007e-06
1.99532e-06
1.96035e-06
1.82361e-06
1.63365e-06
1.43362e-06
1.23225e-06
1.03285e-06
8.3842e-07
6.50812e-07
4.67587e-07
2.88269e-07
1.12807e-07
-6.38542e-08
-2.41228e-07
-4.20572e-07
-5.82724e-07
-8.1643e-07
-4.97987e-07
1.08006e-06
2.00198e-06
2.06299e-06
2.05127e-06
1.91278e-06
1.70945e-06
1.49195e-06
1.2751e-06
1.06431e-06
8.61828e-07
6.67875e-07
4.78492e-07
2.92835e-07
1.11516e-07
-7.1872e-08
-2.5582e-07
-4.37034e-07
-5.93293e-07
-7.81124e-07
-4.96184e-07
1.10441e-06
2.03221e-06
2.16934e-06
2.17253e-06
2.02438e-06
1.80098e-06
1.56138e-06
1.32604e-06
1.10102e-06
8.87388e-07
6.84852e-07
4.88624e-07
2.96016e-07
1.07694e-07
-8.33473e-08
-2.76741e-07
-4.6479e-07
-6.20974e-07
-7.67378e-07
-4.9675e-07
1.15531e-06
2.14534e-06
2.34544e-06
2.34488e-06
2.17187e-06
1.91615e-06
1.64555e-06
1.38566e-06
1.14194e-06
9.13732e-07
7.00609e-07
4.9721e-07
2.97524e-07
1.00762e-07
-9.99388e-08
-3.06554e-07
-5.09216e-07
-6.77686e-07
-7.98403e-07
-5.13829e-07
1.26625e-06
2.36278e-06
2.60141e-06
2.57571e-06
2.35975e-06
2.05706e-06
1.74481e-06
1.45297e-06
1.18585e-06
9.40419e-07
7.15241e-07
5.03995e-07
2.96949e-07
9.07272e-08
-1.22078e-07
-3.46763e-07
-5.73354e-07
-7.69388e-07
-8.91452e-07
-5.68826e-07
)
;

boundaryField
{
    top
    {
        type            zeroGradient;
    }
    bottom
    {
        type            zeroGradient;
    }
    inlet
    {
        type            fixedValue;
        value           uniform 0;
    }
    outlet
    {
        type            fixedValue;
        value           uniform 0;
    }
    frontAndBack
    {
        type            empty;
    }
}


// ************************************************************************* //
