/*--------------------------------*- C++ -*----------------------------------*\
  =========                 |
  \\      /  F ield         | OpenFOAM: The Open Source CFD Toolbox
   \\    /   O peration     | Website:  https://openfoam.org
    \\  /    A nd           | Version:  9
     \\/     M anipulation  |
\*---------------------------------------------------------------------------*/
FoamFile
{
    format      ascii;
    class       surfaceScalarField;
    location    "0.2";
    object      phi;
}
// * * * * * * * * * * * * * * * * * * * * * * * * * * * * * * * * * * * * * //

dimensions      [0 3 -1 0 0 0 0];

internalField   nonuniform List<scalar> 
760
(
8.86017e-07
-6.2822e-12
8.86024e-07
-7.06753e-12
8.8603e-07
-5.61817e-12
8.86034e-07
-4.13813e-12
8.86037e-07
-2.78377e-12
8.86038e-07
-1.67304e-12
8.86039e-07
-9.35842e-13
8.8604e-07
-4.84138e-13
8.8604e-07
-2.06302e-13
8.8604e-07
-8.70845e-14
8.8604e-07
-2.25601e-15
8.8604e-07
8.36596e-14
8.8604e-07
1.6525e-13
8.8604e-07
3.01859e-13
8.86039e-07
5.85144e-13
8.86038e-07
1.10667e-12
8.86036e-07
1.92282e-12
8.86033e-07
3.01095e-12
8.86028e-07
4.60458e-12
4.84922e-12
2.66689e-06
-1.54734e-11
2.6669e-06
-1.93087e-11
2.66691e-06
-1.66505e-11
2.66692e-06
-1.26944e-11
2.66693e-06
-8.76337e-12
2.66693e-06
-5.44179e-12
2.66693e-06
-3.1122e-12
2.66693e-06
-1.64489e-12
2.66694e-06
-7.37673e-13
2.66694e-06
-2.70482e-13
2.66694e-06
2.24673e-14
2.66694e-06
2.80245e-13
2.66693e-06
5.94217e-13
2.66693e-06
1.12871e-12
2.66693e-06
2.09803e-12
2.66693e-06
3.74028e-12
2.66693e-06
6.20087e-12
2.66692e-06
9.32655e-12
2.66691e-06
1.28428e-11
1.20111e-11
4.47403e-06
-2.32508e-11
4.47404e-06
-3.03312e-11
4.47405e-06
-2.71097e-11
4.47406e-06
-2.10789e-11
4.47407e-06
-1.47501e-11
4.47407e-06
-9.29311e-12
4.47407e-06
-5.34015e-12
4.47407e-06
-2.80239e-12
4.47407e-06
-1.23889e-12
4.47407e-06
-3.99873e-13
4.47407e-06
1.16097e-13
4.47407e-06
5.60657e-13
4.47407e-06
1.13754e-12
4.47407e-06
2.12432e-12
4.47407e-06
3.8638e-12
4.47407e-06
6.73455e-12
4.47406e-06
1.09368e-11
4.47406e-06
1.60913e-11
4.47405e-06
2.09799e-11
1.84917e-11
6.32426e-06
-2.76895e-11
6.32426e-06
-3.68676e-11
6.32427e-06
-3.38337e-11
6.32428e-06
-2.66881e-11
6.32428e-06
-1.88331e-11
6.32428e-06
-1.19283e-11
6.32428e-06
-6.81509e-12
6.32429e-06
-3.50496e-12
6.32429e-06
-1.46876e-12
6.32429e-06
-3.55464e-13
6.32429e-06
3.1681e-13
6.32429e-06
8.94986e-13
6.32428e-06
1.67948e-12
6.32428e-06
3.0395e-12
6.32428e-06
5.41478e-12
6.32428e-06
9.27685e-12
6.32428e-06
1.48305e-11
6.32427e-06
2.14357e-11
6.32426e-06
2.69637e-11
2.30954e-11
8.2334e-06
-2.83337e-11
8.2334e-06
-3.81412e-11
8.2334e-06
-3.55847e-11
8.23341e-06
-2.83032e-11
8.23341e-06
-2.00054e-11
8.23341e-06
-1.26072e-11
8.23341e-06
-7.0519e-12
8.23341e-06
-3.44587e-12
8.23341e-06
-1.25348e-12
8.23341e-06
-6.22122e-14
8.23341e-06
6.41514e-13
8.23341e-06
1.25625e-12
8.23341e-06
2.13997e-12
8.2334e-06
3.71251e-12
8.2334e-06
6.45701e-12
8.2334e-06
1.08741e-11
8.2334e-06
1.71341e-11
8.2334e-06
2.43806e-11
8.23339e-06
2.99237e-11
2.52742e-11
1.02159e-05
-2.52212e-11
1.02159e-05
-3.42088e-11
1.02159e-05
-3.21087e-11
1.02159e-05
-2.55019e-11
1.02159e-05
-1.7829e-11
1.02159e-05
-1.09525e-11
1.02159e-05
-5.77894e-12
1.02159e-05
-2.45389e-12
1.02159e-05
-4.93793e-13
1.02159e-05
5.23433e-13
1.02159e-05
1.09541e-12
1.02159e-05
1.62025e-12
1.02159e-05
2.46261e-12
1.02159e-05
4.04154e-12
1.02159e-05
6.82285e-12
1.02159e-05
1.1273e-11
1.02159e-05
1.75085e-11
1.02159e-05
2.45605e-11
1.02159e-05
2.95911e-11
2.48414e-11
1.22845e-05
-1.88011e-11
1.22845e-05
-2.57004e-11
1.22845e-05
-2.3846e-11
1.22845e-05
-1.8498e-11
1.22845e-05
-1.23724e-11
1.22845e-05
-6.95581e-12
1.22845e-05
-2.96386e-12
1.22845e-05
-5.0832e-13
1.22845e-05
8.1936e-13
1.22845e-05
1.3992e-12
1.22845e-05
1.66548e-12
1.22845e-05
1.96533e-12
1.22845e-05
2.61837e-12
1.22845e-05
3.99097e-12
1.22845e-05
6.47407e-12
1.22845e-05
1.04461e-11
1.22845e-05
1.59672e-11
1.22845e-05
2.20808e-11
1.22845e-05
2.61894e-11
2.19657e-11
1.445e-05
-9.81635e-12
1.445e-05
-1.36398e-11
1.445e-05
-1.17475e-11
1.445e-05
-8.02137e-12
1.445e-05
-4.1447e-12
1.445e-05
-9.50711e-13
1.445e-05
1.18584e-12
1.44499e-05
2.25792e-12
1.44499e-05
2.60043e-12
1.44499e-05
2.51017e-12
1.44499e-05
2.31597e-12
1.44499e-05
2.27086e-12
1.44499e-05
2.60472e-12
1.44499e-05
3.58693e-12
1.44499e-05
5.48649e-12
1.44499e-05
8.55393e-12
1.445e-05
1.27971e-11
1.445e-05
1.73876e-11
1.445e-05
2.02721e-11
1.70643e-11
1.67207e-05
7.92589e-13
1.67207e-05
6.85357e-13
1.67207e-05
2.87306e-12
1.67206e-05
4.79966e-12
1.67206e-05
5.985e-12
1.67206e-05
6.43861e-12
1.67206e-05
6.24968e-12
1.67206e-05
5.57105e-12
1.67206e-05
4.67604e-12
1.67206e-05
3.75114e-12
1.67206e-05
2.98855e-12
1.67206e-05
2.51571e-12
1.67206e-05
2.44034e-12
1.67206e-05
2.90381e-12
1.67206e-05
4.02154e-12
1.67206e-05
5.89136e-12
1.67206e-05
8.47258e-12
1.67206e-05
1.11475e-11
1.67206e-05
1.25998e-11
1.07212e-11
1.91025e-05
1.19701e-11
1.91025e-05
1.58292e-11
1.91025e-05
1.84662e-11
1.91024e-05
1.85602e-11
1.91024e-05
1.68839e-11
1.91024e-05
1.43704e-11
1.91024e-05
1.16436e-11
1.91024e-05
9.0465e-12
1.91024e-05
6.80365e-12
1.91024e-05
4.97765e-12
1.91024e-05
3.60723e-12
1.91024e-05
2.67764e-12
1.91024e-05
2.15768e-12
1.91024e-05
2.04649e-12
1.91024e-05
2.29214e-12
1.91024e-05
2.83024e-12
1.91024e-05
3.57042e-12
1.91024e-05
4.14329e-12
1.91024e-05
4.04401e-12
3.62047e-12
2.15986e-05
2.26218e-11
2.15985e-05
3.02839e-11
2.15985e-05
3.33685e-11
2.15985e-05
3.1708e-11
2.15985e-05
2.72703e-11
2.15985e-05
2.18771e-11
2.15985e-05
1.66883e-11
2.15985e-05
1.22355e-11
2.15985e-05
8.70181e-12
2.15985e-05
6.0244e-12
2.15985e-05
4.08767e-12
2.15985e-05
2.73471e-12
2.15985e-05
1.79591e-12
2.15985e-05
1.13191e-12
2.15985e-05
5.28302e-13
2.15985e-05
-2.36161e-13
2.15985e-05
-1.30743e-12
2.15985e-05
-2.8165e-12
2.15985e-05
-4.49325e-12
-3.51432e-12
2.42093e-05
3.16911e-11
2.42093e-05
4.25765e-11
2.42093e-05
4.59287e-11
2.42093e-05
4.26848e-11
2.42093e-05
3.58464e-11
2.42093e-05
2.79763e-11
2.42093e-05
2.06939e-11
2.42093e-05
1.46846e-11
2.42093e-05
1.00897e-11
2.42093e-05
6.72969e-12
2.42093e-05
4.35017e-12
2.42093e-05
2.66886e-12
2.42093e-05
1.39526e-12
2.42093e-05
2.72521e-13
2.42093e-05
-1.05354e-12
2.42093e-05
-2.9418e-12
2.42093e-05
-5.60039e-12
2.42093e-05
-8.97275e-12
2.42093e-05
-1.21481e-11
-9.97687e-12
2.69323e-05
3.82352e-11
2.69323e-05
5.13704e-11
2.69323e-05
5.46462e-11
2.69323e-05
5.00838e-11
2.69323e-05
4.14479e-11
2.69323e-05
3.17953e-11
2.69323e-05
2.30562e-11
2.69323e-05
1.60043e-11
2.69323e-05
1.07322e-11
2.69323e-05
6.96326e-12
2.69323e-05
4.33473e-12
2.69323e-05
2.47116e-12
2.69323e-05
9.93481e-13
2.69323e-05
-4.36898e-13
2.69323e-05
-2.27557e-12
2.69323e-05
-4.98739e-12
2.69323e-05
-8.84386e-12
2.69323e-05
-1.36796e-11
2.69323e-05
-1.81562e-11
-1.51307e-11
2.97622e-05
4.15025e-11
2.97622e-05
5.55768e-11
2.97622e-05
5.83286e-11
2.97622e-05
5.28234e-11
2.97622e-05
4.32074e-11
2.97622e-05
3.27058e-11
2.97622e-05
2.33575e-11
2.97622e-05
1.5939e-11
2.97622e-05
1.0486e-11
2.97622e-05
6.65394e-12
2.97622e-05
4.01594e-12
2.97622e-05
2.14759e-12
2.97622e-05
6.24165e-13
2.97622e-05
-9.28701e-13
2.97622e-05
-3.01693e-12
2.97622e-05
-6.16991e-12
2.97622e-05
-1.07123e-11
2.97622e-05
-1.64575e-11
2.97622e-05
-2.1907e-11
-1.84577e-11
3.26912e-05
4.10106e-11
3.26912e-05
5.44844e-11
3.26912e-05
5.62728e-11
3.26912e-05
5.0338e-11
3.26912e-05
4.07217e-11
3.26912e-05
3.04547e-11
3.26912e-05
2.14605e-11
3.26912e-05
1.44299e-11
3.26912e-05
9.3382e-12
3.26912e-05
5.8121e-12
3.26912e-05
3.41442e-12
3.26912e-05
1.7234e-12
3.26912e-05
3.16047e-13
3.26912e-05
-1.16824e-12
3.26912e-05
-3.22592e-12
3.26912e-05
-6.40247e-12
3.26912e-05
-1.10514e-11
3.26912e-05
-1.70386e-11
3.26912e-05
-2.29965e-11
-1.96045e-11
3.57087e-05
3.66372e-11
3.57087e-05
4.79215e-11
3.57087e-05
4.84761e-11
3.57087e-05
4.27728e-11
3.57087e-05
3.42074e-11
3.57087e-05
2.52749e-11
3.57087e-05
1.75811e-11
3.57087e-05
1.16582e-11
3.57087e-05
7.43031e-12
3.57087e-05
4.54151e-12
3.57087e-05
2.6017e-12
3.57087e-05
1.2439e-12
3.57087e-05
9.20046e-14
3.57087e-05
-1.15637e-12
3.57087e-05
-2.92619e-12
3.57087e-05
-5.72569e-12
3.57087e-05
-9.90128e-12
3.57087e-05
-1.54099e-11
3.57087e-05
-2.12814e-11
-1.84298e-11
3.88019e-05
2.87398e-11
3.88019e-05
3.64785e-11
3.88019e-05
3.5877e-11
3.8802e-05
3.1168e-11
3.8802e-05
2.46183e-11
3.8802e-05
1.79526e-11
3.8802e-05
1.23198e-11
3.8802e-05
8.05635e-12
3.8802e-05
5.05831e-12
3.8802e-05
3.03533e-12
3.8802e-05
1.69544e-12
3.8802e-05
7.69743e-13
3.8802e-05
-3.38905e-14
3.8802e-05
-9.28705e-13
3.8802e-05
-2.21719e-12
3.8802e-05
-4.31335e-12
3.8802e-05
-7.51345e-12
3.8802e-05
-1.18582e-11
3.8802e-05
-1.69496e-11
-1.50612e-11
4.19563e-05
1.82987e-11
4.19563e-05
2.18325e-11
4.19563e-05
2.06093e-11
4.19563e-05
1.75856e-11
4.19564e-05
1.36885e-11
4.19564e-05
9.82373e-12
4.19564e-05
6.63637e-12
4.19564e-05
4.27479e-12
4.19564e-05
2.64213e-12
4.19564e-05
1.55306e-12
4.19564e-05
8.44372e-13
4.19564e-05
3.65019e-13
4.19564e-05
-6.43844e-14
4.19564e-05
-5.52053e-13
4.19564e-05
-1.2664e-12
4.19564e-05
-2.47513e-12
4.19564e-05
-4.37105e-12
4.19564e-05
-7.02981e-12
4.19564e-05
-1.06137e-11
-9.94168e-12
4.51555e-05
7.20616e-12
4.51555e-05
7.60097e-12
4.51555e-05
6.63087e-12
4.51555e-05
5.49517e-12
4.51556e-05
4.17134e-12
4.51556e-05
2.90694e-12
4.51556e-05
1.91217e-12
4.51556e-05
1.20539e-12
4.51556e-05
7.28124e-13
4.51556e-05
4.10703e-13
4.51556e-05
2.14285e-13
4.51556e-05
9.3878e-14
4.51556e-05
-2.59306e-14
4.51556e-05
-1.66643e-13
4.51556e-05
-3.71705e-13
4.51556e-05
-7.47652e-13
4.51556e-05
-1.36844e-12
4.51556e-05
-2.28601e-12
4.51556e-05
-3.86091e-12
-4.05261e-12
4.83821e-05
4.83821e-05
4.83821e-05
4.83821e-05
4.83821e-05
4.83821e-05
4.83821e-05
4.83821e-05
4.83821e-05
4.83821e-05
4.83821e-05
4.83821e-05
4.83821e-05
4.83821e-05
4.83821e-05
4.83821e-05
4.83821e-05
4.83821e-05
4.83821e-05
)
;

boundaryField
{
    top
    {
        type            calculated;
        value           uniform 0;
    }
    bottom
    {
        type            calculated;
        value           uniform 0;
    }
    inlet
    {
        type            calculated;
        value           nonuniform List<scalar> 
20
(
-8.86011e-07
-2.66688e-06
-4.47402e-06
-6.32425e-06
-8.2334e-06
-1.02159e-05
-1.22846e-05
-1.445e-05
-1.67207e-05
-1.91025e-05
-2.15986e-05
-2.42093e-05
-2.69323e-05
-2.97622e-05
-3.26912e-05
-3.57086e-05
-3.88019e-05
-4.19563e-05
-4.51555e-05
-4.83821e-05
)
;
    }
    outlet
    {
        type            calculated;
        value           nonuniform List<scalar> 
20
(
8.86023e-07
2.6669e-06
4.47404e-06
6.32426e-06
8.23339e-06
1.02159e-05
1.22845e-05
1.445e-05
1.67206e-05
1.91024e-05
2.15985e-05
2.42093e-05
2.69323e-05
2.97622e-05
3.26912e-05
3.57087e-05
3.8802e-05
4.19564e-05
4.51556e-05
4.83821e-05
)
;
    }
    frontAndBack
    {
        type            empty;
        value           nonuniform List<scalar> 0();
    }
}


// ************************************************************************* //
