/*--------------------------------*- C++ -*----------------------------------*\
  =========                 |
  \\      /  F ield         | OpenFOAM: The Open Source CFD Toolbox
   \\    /   O peration     | Website:  https://openfoam.org
    \\  /    A nd           | Version:  9
     \\/     M anipulation  |
\*---------------------------------------------------------------------------*/
FoamFile
{
    format      ascii;
    class       volVectorField;
    location    "0.2";
    object      U;
}
// * * * * * * * * * * * * * * * * * * * * * * * * * * * * * * * * * * * * * //

dimensions      [0 1 -1 0 0 0 0];

internalField   nonuniform List<vector> 
400
(
(0.0177203 -3.17485e-08 0)
(0.0177204 -3.68831e-08 0)
(0.0177205 -2.88674e-08 0)
(0.0177206 -2.11363e-08 0)
(0.0177207 -1.41158e-08 0)
(0.0177208 -8.3319e-09 0)
(0.0177208 -4.77253e-09 0)
(0.0177208 -2.32913e-09 0)
(0.0177208 -9.48659e-10 0)
(0.0177208 -6.90578e-10 0)
(0.0177208 -2.11261e-10 0)
(0.0177208 4.86098e-10 0)
(0.0177208 9.43202e-10 0)
(0.0177208 1.43585e-09 0)
(0.0177208 2.64176e-09 0)
(0.0177208 5.0945e-09 0)
(0.0177207 8.98018e-09 0)
(0.0177207 1.42091e-08 0)
(0.0177206 2.24262e-08 0)
(0.0177205 2.36678e-08 0)
(0.0533377 -1.07671e-07 0)
(0.0533379 -1.28567e-07 0)
(0.0533382 -1.06643e-07 0)
(0.0533384 -7.9721e-08 0)
(0.0533385 -5.42423e-08 0)
(0.0533386 -3.30734e-08 0)
(0.0533387 -1.86333e-08 0)
(0.0533387 -9.86961e-09 0)
(0.0533387 -4.40033e-09 0)
(0.0533387 -1.68793e-09 0)
(0.0533387 9.6854e-12 0)
(0.0533387 1.55908e-09 0)
(0.0533387 3.33426e-09 0)
(0.0533387 6.34547e-09 0)
(0.0533387 1.20474e-08 0)
(0.0533386 2.20663e-08 0)
(0.0533386 3.74937e-08 0)
(0.0533385 5.78299e-08 0)
(0.0533383 8.39912e-08 0)
(0.0533381 8.27683e-08 0)
(0.0894805 -1.98803e-07 0)
(0.0894807 -2.54865e-07 0)
(0.0894809 -2.24437e-07 0)
(0.0894811 -1.72933e-07 0)
(0.0894813 -1.20298e-07 0)
(0.0894814 -7.54097e-08 0)
(0.0894814 -4.34282e-08 0)
(0.0894815 -2.28684e-08 0)
(0.0894815 -1.0292e-08 0)
(0.0894815 -3.77205e-09 0)
(0.0894815 4.50556e-10 0)
(0.0894815 4.19801e-09 0)
(0.0894815 8.71509e-09 0)
(0.0894814 1.62677e-08 0)
(0.0894814 2.98319e-08 0)
(0.0894814 5.25833e-08 0)
(0.0894813 8.62351e-08 0)
(0.0894812 1.28164e-07 0)
(0.089481 1.71012e-07 0)
(0.0894809 1.54575e-07 0)
(0.126485 -2.63361e-07 0)
(0.126485 -3.47094e-07 0)
(0.126485 -3.1501e-07 0)
(0.126485 -2.4697e-07 0)
(0.126486 -1.73748e-07 0)
(0.126486 -1.09857e-07 0)
(0.126486 -6.31289e-08 0)
(0.126486 -3.31592e-08 0)
(0.126486 -1.44979e-08 0)
(0.126486 -4.18367e-09 0)
(0.126486 2.02621e-09 0)
(0.126486 7.23599e-09 0)
(0.126486 1.41636e-08 0)
(0.126486 2.61687e-08 0)
(0.126486 4.72406e-08 0)
(0.126486 8.17265e-08 0)
(0.126486 1.31727e-07 0)
(0.126485 1.9208e-07 0)
(0.126485 2.45497e-07 0)
(0.126485 2.13128e-07 0)
(0.164668 -2.90172e-07 0)
(0.164668 -3.88296e-07 0)
(0.164668 -3.60219e-07 0)
(0.164668 -2.85778e-07 0)
(0.164668 -2.02338e-07 0)
(0.164668 -1.28392e-07 0)
(0.164668 -7.30086e-08 0)
(0.164668 -3.70237e-08 0)
(0.164668 -1.49043e-08 0)
(0.164668 -2.72148e-09 0)
(0.164668 4.52974e-09 0)
(0.164668 1.07335e-08 0)
(0.164668 1.93782e-08 0)
(0.164668 3.4548e-08 0)
(0.164668 6.09692e-08 0)
(0.164668 1.03629e-07 0)
(0.164668 1.64455e-07 0)
(0.164668 2.3572e-07 0)
(0.164668 2.92305e-07 0)
(0.164668 2.48469e-07 0)
(0.204318 -2.77012e-07 0)
(0.204318 -3.73891e-07 0)
(0.204318 -3.51096e-07 0)
(0.204318 -2.80012e-07 0)
(0.204318 -1.9772e-07 0)
(0.204318 -1.23967e-07 0)
(0.204318 -6.82134e-08 0)
(0.204318 -3.19644e-08 0)
(0.204318 -1.01512e-08 0)
(0.204318 1.54929e-09 0)
(0.204318 8.337e-09 0)
(0.204318 1.43513e-08 0)
(0.204318 2.33609e-08 0)
(0.204318 3.96901e-08 0)
(0.204318 6.82126e-08 0)
(0.204318 1.1389e-07 0)
(0.204318 1.78166e-07 0)
(0.204318 2.51602e-07 0)
(0.204318 3.05493e-07 0)
(0.204318 2.5717e-07 0)
(0.245691 -2.27661e-07 0)
(0.245691 -3.09487e-07 0)
(0.245691 -2.90535e-07 0)
(0.245691 -2.2978e-07 0)
(0.24569 -1.58815e-07 0)
(0.24569 -9.52324e-08 0)
(0.24569 -4.75074e-08 0)
(0.24569 -1.71308e-08 0)
(0.24569 2.86489e-10 0)
(0.24569 8.88118e-09 0)
(0.24569 1.34686e-08 0)
(0.24569 1.79126e-08 0)
(0.24569 2.57609e-08 0)
(0.24569 4.10556e-08 0)
(0.24569 6.82e-08 0)
(0.24569 1.11524e-07 0)
(0.24569 1.7189e-07 0)
(0.24569 2.39351e-07 0)
(0.24569 2.85837e-07 0)
(0.24569 2.3983e-07 0)
(0.289 -1.48454e-07 0)
(0.289 -2.0382e-07 0)
(0.289 -1.85919e-07 0)
(0.288999 -1.40048e-07 0)
(0.288999 -8.86451e-08 0)
(0.288999 -4.39579e-08 0)
(0.288999 -1.18422e-08 0)
(0.288999 6.94655e-09 0)
(0.288999 1.60696e-08 0)
(0.288999 1.90022e-08 0)
(0.288999 1.96831e-08 0)
(0.288999 2.12206e-08 0)
(0.288999 2.64578e-08 0)
(0.288999 3.86592e-08 0)
(0.288999 6.12129e-08 0)
(0.288999 9.73375e-08 0)
(0.288999 1.47353e-07 0)
(0.288999 2.02074e-07 0)
(0.288999 2.3762e-07 0)
(0.288999 1.99644e-07 0)
(0.334414 -4.79391e-08 0)
(0.334414 -6.85774e-08 0)
(0.334413 -4.87858e-08 0)
(0.334413 -2.03573e-08 0)
(0.334413 5.70875e-09 0)
(0.334413 2.49219e-08 0)
(0.334413 3.55439e-08 0)
(0.334412 3.81961e-08 0)
(0.334412 3.58851e-08 0)
(0.334412 3.10868e-08 0)
(0.334412 2.64866e-08 0)
(0.334412 2.40536e-08 0)
(0.334412 2.5532e-08 0)
(0.334412 3.30212e-08 0)
(0.334412 4.84907e-08 0)
(0.334412 7.37208e-08 0)
(0.334412 1.08545e-07 0)
(0.334413 1.45581e-07 0)
(0.334413 1.6765e-07 0)
(0.334413 1.41776e-07 0)
(0.38205 6.37593e-08 0)
(0.382049 8.24111e-08 0)
(0.382049 1.06307e-07 0)
(0.382049 1.16327e-07 0)
(0.382049 1.13968e-07 0)
(0.382048 1.03875e-07 0)
(0.382048 8.94781e-08 0)
(0.382048 7.32234e-08 0)
(0.382048 5.75858e-08 0)
(0.382048 4.38407e-08 0)
(0.382048 3.31757e-08 0)
(0.382048 2.61757e-08 0)
(0.382048 2.32354e-08 0)
(0.382048 2.50587e-08 0)
(0.382048 3.19654e-08 0)
(0.382048 4.41266e-08 0)
(0.382048 6.09066e-08 0)
(0.382048 7.73467e-08 0)
(0.382048 8.43018e-08 0)
(0.382049 7.27302e-08 0)
(0.431972 1.75699e-07 0)
(0.431971 2.34128e-07 0)
(0.431971 2.62972e-07 0)
(0.431971 2.54849e-07 0)
(0.43197 2.23717e-07 0)
(0.43197 1.83579e-07 0)
(0.43197 1.43433e-07 0)
(0.43197 1.07708e-07 0)
(0.43197 7.84458e-08 0)
(0.43197 5.56458e-08 0)
(0.43197 3.89085e-08 0)
(0.43197 2.73498e-08 0)
(0.43197 1.99336e-08 0)
(0.43197 1.59174e-08 0)
(0.43197 1.39286e-08 0)
(0.43197 1.25104e-08 0)
(0.43197 1.05173e-08 0)
(0.43197 5.54526e-09 0)
(0.43197 -3.35724e-09 0)
(0.431971 -2.95126e-10 0)
(0.484187 2.76911e-07 0)
(0.484186 3.71385e-07 0)
(0.484186 4.04272e-07 0)
(0.484186 3.79254e-07 0)
(0.484186 3.21676e-07 0)
(0.484185 2.53969e-07 0)
(0.484185 1.90321e-07 0)
(0.484185 1.36959e-07 0)
(0.484185 9.55277e-08 0)
(0.484185 6.47846e-08 0)
(0.484185 4.28173e-08 0)
(0.484185 2.73581e-08 0)
(0.484185 1.60327e-08 0)
(0.484185 6.78197e-09 0)
(0.484185 -3.31343e-09 0)
(0.484185 -1.72118e-08 0)
(0.484185 -3.66469e-08 0)
(0.484185 -6.17969e-08 0)
(0.484186 -8.632e-08 0)
(0.484186 -7.0004e-08 0)
(0.538646 3.57183e-07 0)
(0.538646 4.79835e-07 0)
(0.538646 5.14053e-07 0)
(0.538645 4.74288e-07 0)
(0.538645 3.95142e-07 0)
(0.538645 3.05451e-07 0)
(0.538645 2.23434e-07 0)
(0.538645 1.56596e-07 0)
(0.538645 1.06141e-07 0)
(0.538645 6.97267e-08 0)
(0.538645 4.4164e-08 0)
(0.538645 2.6051e-08 0)
(0.538645 1.19306e-08 0)
(0.538645 -1.28024e-09 0)
(0.538645 -1.77296e-08 0)
(0.538645 -4.16158e-08 0)
(0.538645 -7.53262e-08 0)
(0.538645 -1.17503e-07 0)
(0.538645 -1.56297e-07 0)
(0.538646 -1.29553e-07 0)
(0.595245 4.07846e-07 0)
(0.595244 5.47061e-07 0)
(0.595244 5.78459e-07 0)
(0.595244 5.27104e-07 0)
(0.595244 4.336e-07 0)
(0.595244 3.30254e-07 0)
(0.595244 2.37483e-07 0)
(0.595244 1.63284e-07 0)
(0.595244 1.08332e-07 0)
(0.595244 6.94358e-08 0)
(0.595244 4.25102e-08 0)
(0.595244 2.3414e-08 0)
(0.595244 7.9956e-09 0)
(0.595244 -7.43222e-09 0)
(0.595244 -2.77853e-08 0)
(0.595244 -5.81239e-08 0)
(0.595244 -1.01476e-07 0)
(0.595244 -1.55843e-07 0)
(0.595244 -2.06315e-07 0)
(0.595245 -1.73073e-07 0)
(0.653823 4.22546e-07 0)
(0.653823 5.63751e-07 0)
(0.653823 5.8759e-07 0)
(0.653824 5.29056e-07 0)
(0.653824 4.30362e-07 0)
(0.653824 3.23731e-07 0)
(0.653824 2.29543e-07 0)
(0.653824 1.5537e-07 0)
(0.653824 1.01289e-07 0)
(0.653824 6.36065e-08 0)
(0.653824 3.78406e-08 0)
(0.653824 1.96094e-08 0)
(0.653824 4.54786e-09 0)
(0.653824 -1.11399e-08 0)
(0.653824 -3.25874e-08 0)
(0.653824 -6.52518e-08 0)
(0.653824 -1.12641e-07 0)
(0.653824 -1.73011e-07 0)
(0.653824 -2.31228e-07 0)
(0.653824 -1.96127e-07 0)
(0.714173 3.97955e-07 0)
(0.714173 5.24955e-07 0)
(0.714173 5.37304e-07 0)
(0.714173 4.77518e-07 0)
(0.714174 3.8409e-07 0)
(0.714174 2.85478e-07 0)
(0.714174 1.99796e-07 0)
(0.714174 1.33334e-07 0)
(0.714174 8.55822e-08 0)
(0.714174 5.27728e-08 0)
(0.714174 3.05971e-08 0)
(0.714174 1.49735e-08 0)
(0.714174 1.83408e-09 0)
(0.714174 -1.22235e-08 0)
(0.714174 -3.19719e-08 0)
(0.714174 -6.27625e-08 0)
(0.714174 -1.08223e-07 0)
(0.714174 -1.67485e-07 0)
(0.714174 -2.28125e-07 0)
(0.714174 -1.96094e-07 0)
(0.776038 3.34088e-07 0)
(0.776039 4.31018e-07 0)
(0.776039 4.30449e-07 0)
(0.776039 3.76835e-07 0)
(0.776039 2.99419e-07 0)
(0.77604 2.19718e-07 0)
(0.77604 1.5173e-07 0)
(0.77604 9.98535e-08 0)
(0.77604 6.31481e-08 0)
(0.77604 3.8266e-08 0)
(0.77604 2.16328e-08 0)
(0.77604 9.97722e-09 0)
(0.77604 1.96487e-11 0)
(0.77604 -1.08099e-08 0)
(0.77604 -2.6422e-08 0)
(0.77604 -5.15623e-08 0)
(0.77604 -8.93945e-08 0)
(0.77604 -1.39998e-07 0)
(0.77604 -1.96297e-07 0)
(0.77604 -1.72244e-07 0)
(0.839126 2.37737e-07 0)
(0.839126 2.94061e-07 0)
(0.839127 2.83959e-07 0)
(0.839127 2.44437e-07 0)
(0.839127 1.91592e-07 0)
(0.839127 1.38541e-07 0)
(0.839127 9.43012e-08 0)
(0.839127 6.12166e-08 0)
(0.839128 3.81255e-08 0)
(0.839128 2.25794e-08 0)
(0.839128 1.23907e-08 0)
(0.839128 5.49548e-09 0)
(0.839128 -6.68424e-10 0)
(0.839128 -7.70594e-09 0)
(0.839128 -1.77545e-08 0)
(0.839128 -3.44459e-08 0)
(0.839128 -6.03314e-08 0)
(0.839127 -9.59633e-08 0)
(0.839127 -1.40353e-07 0)
(0.839127 -1.27465e-07 0)
(0.90311 1.24285e-07 0)
(0.90311 1.40427e-07 0)
(0.903111 1.27206e-07 0)
(0.903111 1.0653e-07 0)
(0.903111 8.17226e-08 0)
(0.903111 5.77186e-08 0)
(0.903111 3.83903e-08 0)
(0.903111 2.4377e-08 0)
(0.903111 1.48394e-08 0)
(0.903111 8.52575e-09 0)
(0.903111 4.48676e-09 0)
(0.903111 1.83045e-09 0)
(0.903111 -5.78218e-10 0)
(0.903111 -3.33569e-09 0)
(0.903111 -7.52979e-09 0)
(0.903111 -1.49045e-08 0)
(0.903111 -2.6782e-08 0)
(0.903111 -4.40303e-08 0)
(0.903111 -7.01791e-08 0)
(0.903111 -6.90914e-08 0)
(0.967642 3.55531e-08 0)
(0.967642 3.70993e-08 0)
(0.967642 3.12197e-08 0)
(0.967642 2.53363e-08 0)
(0.967642 1.88732e-08 0)
(0.967642 1.28451e-08 0)
(0.967642 8.30232e-09 0)
(0.967642 5.21152e-09 0)
(0.967642 3.10232e-09 0)
(0.967642 1.6015e-09 0)
(0.967642 7.258e-10 0)
(0.967643 3.57694e-10 0)
(0.967643 -1.72017e-10 0)
(0.967642 -9.90893e-10 0)
(0.967642 -1.98019e-09 0)
(0.967642 -3.86404e-09 0)
(0.967642 -6.99056e-09 0)
(0.967642 -1.15204e-08 0)
(0.967642 -1.96384e-08 0)
(0.967642 -1.9974e-08 0)
)
;

boundaryField
{
    top
    {
        type            fixedValue;
        value           uniform (1 0 0);
    }
    bottom
    {
        type            fixedValue;
        value           uniform (0 0 0);
    }
    inlet
    {
        type            zeroGradient;
    }
    outlet
    {
        type            zeroGradient;
    }
    frontAndBack
    {
        type            empty;
    }
}


// ************************************************************************* //
