/*--------------------------------*- C++ -*----------------------------------*\
  =========                 |
  \\      /  F ield         | OpenFOAM: The Open Source CFD Toolbox
   \\    /   O peration     | Website:  https://openfoam.org
    \\  /    A nd           | Version:  9
     \\/     M anipulation  |
\*---------------------------------------------------------------------------*/
FoamFile
{
    format      ascii;
    class       volScalarField;
    location    "4.9";
    object      p;
}
// * * * * * * * * * * * * * * * * * * * * * * * * * * * * * * * * * * * * * //

dimensions      [0 2 -2 0 0 0 0];

internalField   nonuniform List<scalar> 
400
(
4.94806e-12
8.19998e-12
7.92907e-12
7.54272e-12
6.90735e-12
6.15467e-12
5.3705e-12
4.57262e-12
3.77441e-12
2.9827e-12
2.19387e-12
1.40266e-12
6.07346e-13
-1.91755e-13
-9.93972e-13
-1.80069e-12
-2.59092e-12
-3.30778e-12
-4.21385e-12
-2.66235e-12
4.6939e-12
7.81491e-12
7.51995e-12
7.29745e-12
6.75843e-12
6.06482e-12
5.31849e-12
4.54352e-12
3.75878e-12
2.97484e-12
2.19054e-12
1.40223e-12
6.09557e-13
-1.85546e-13
-9.79459e-13
-1.76933e-12
-2.52444e-12
-3.15532e-12
-4.11457e-12
-2.5946e-12
4.74529e-12
7.84811e-12
7.28891e-12
7.13817e-12
6.65141e-12
5.99414e-12
5.27493e-12
4.51767e-12
3.74383e-12
2.96638e-12
2.18605e-12
1.40047e-12
6.10376e-13
-1.81395e-13
-9.69438e-13
-1.74961e-12
-2.49025e-12
-3.08045e-12
-4.24662e-12
-2.68982e-12
4.92727e-12
8.18983e-12
7.24007e-12
7.071e-12
6.59355e-12
5.94822e-12
5.24335e-12
4.49698e-12
3.73042e-12
2.95762e-12
2.18042e-12
1.3972e-12
6.09158e-13
-1.80402e-13
-9.65825e-13
-1.74465e-12
-2.49044e-12
-3.08564e-12
-4.51443e-12
-2.8375e-12
5.12684e-12
8.66366e-12
7.2856e-12
7.05573e-12
6.5654e-12
5.91785e-12
5.21919e-12
4.47928e-12
3.71749e-12
2.94832e-12
2.17391e-12
1.39274e-12
6.06261e-13
-1.82165e-13
-9.67294e-13
-1.74986e-12
-2.51135e-12
-3.12959e-12
-4.81416e-12
-2.97796e-12
5.31103e-12
9.17572e-12
7.3778e-12
7.0686e-12
6.55486e-12
5.89679e-12
5.19921e-12
4.46306e-12
3.70475e-12
2.93848e-12
2.16648e-12
1.38738e-12
6.02124e-13
-1.86139e-13
-9.72416e-13
-1.76099e-12
-2.5419e-12
-3.18701e-12
-5.0891e-12
-3.09219e-12
5.4735e-12
9.67406e-12
7.48955e-12
7.09487e-12
6.55388e-12
5.88095e-12
5.18123e-12
4.44724e-12
3.69194e-12
2.92843e-12
2.15856e-12
1.38119e-12
5.97084e-13
-1.91315e-13
-9.79497e-13
-1.77443e-12
-2.57445e-12
-3.24277e-12
-5.31045e-12
-3.17693e-12
5.60785e-12
1.01162e-11
7.59887e-12
7.12223e-12
6.55462e-12
5.86652e-12
5.16377e-12
4.43127e-12
3.67883e-12
2.91801e-12
2.15033e-12
1.37481e-12
5.91427e-13
-1.97102e-13
-9.86737e-13
-1.7866e-12
-2.60199e-12
-3.28548e-12
-5.4582e-12
-3.22911e-12
5.71004e-12
1.04694e-11
7.68831e-12
7.14039e-12
6.55181e-12
5.85057e-12
5.14537e-12
4.41468e-12
3.66546e-12
2.90764e-12
2.14232e-12
1.36831e-12
5.85834e-13
-2.02342e-13
-9.92442e-13
-1.79444e-12
-2.61872e-12
-3.30672e-12
-5.52106e-12
-3.24766e-12
5.77712e-12
1.07091e-11
7.7455e-12
7.14328e-12
6.54171e-12
5.83206e-12
5.12581e-12
4.39765e-12
3.65195e-12
2.89735e-12
2.13464e-12
1.3622e-12
5.81016e-13
-2.0608e-13
-9.9486e-13
-1.79516e-12
-2.62077e-12
-3.3017e-12
-5.49469e-12
-3.23315e-12
5.8067e-12
1.08196e-11
7.76356e-12
7.12849e-12
6.52331e-12
5.81082e-12
5.10574e-12
4.38082e-12
3.63894e-12
2.88747e-12
2.12735e-12
1.35701e-12
5.77579e-13
-2.07852e-13
-9.93379e-13
-1.78771e-12
-2.60675e-12
-3.26873e-12
-5.38097e-12
-3.18662e-12
5.79678e-12
1.07932e-11
7.74115e-12
7.09695e-12
6.49832e-12
5.7883e-12
5.0865e-12
4.36501e-12
3.62707e-12
2.87878e-12
2.12097e-12
1.35282e-12
5.7525e-13
-2.07215e-13
-9.87903e-13
-1.77204e-12
-2.5763e-12
-3.20994e-12
-5.18761e-12
-3.11038e-12
5.74599e-12
1.06309e-11
7.68229e-12
7.05362e-12
6.46991e-12
5.76755e-12
5.06969e-12
4.35193e-12
3.61705e-12
2.87148e-12
2.11604e-12
1.34963e-12
5.74553e-13
-2.04219e-13
-9.78591e-13
-1.74975e-12
-2.53211e-12
-3.12945e-12
-4.92664e-12
-3.00754e-12
5.65337e-12
1.03427e-11
7.59683e-12
7.00625e-12
6.44355e-12
5.75176e-12
5.05823e-12
4.34281e-12
3.60994e-12
2.86612e-12
2.11215e-12
1.34771e-12
5.75144e-13
-1.99843e-13
-9.66787e-13
-1.72314e-12
-2.47826e-12
-3.03455e-12
-4.61513e-12
-2.88203e-12
5.51884e-12
9.95078e-12
7.50134e-12
6.96563e-12
6.42607e-12
5.74493e-12
5.05327e-12
4.33856e-12
3.60612e-12
2.86315e-12
2.10968e-12
1.34707e-12
5.76785e-13
-1.94948e-13
-9.55435e-13
-1.69588e-12
-2.42167e-12
-2.93589e-12
-4.27498e-12
-2.73954e-12
5.34705e-12
9.49069e-12
7.41666e-12
6.94384e-12
6.42392e-12
5.75024e-12
5.05669e-12
4.34042e-12
3.60647e-12
2.86283e-12
2.10895e-12
1.34665e-12
5.77987e-13
-1.90701e-13
-9.45162e-13
-1.67281e-12
-2.37071e-12
-2.84521e-12
-3.93239e-12
-2.58688e-12
5.14046e-12
9.01098e-12
7.3707e-12
6.95374e-12
6.44259e-12
5.76959e-12
5.07e-12
4.34786e-12
3.61078e-12
2.86498e-12
2.10921e-12
1.34708e-12
5.7851e-13
-1.88843e-13
-9.39186e-13
-1.65878e-12
-2.33444e-12
-2.77792e-12
-3.618e-12
-2.43188e-12
4.9291e-12
8.60635e-12
7.41001e-12
7.01503e-12
6.49036e-12
5.80617e-12
5.09332e-12
4.36167e-12
3.61841e-12
2.86907e-12
2.11117e-12
1.34784e-12
5.77619e-13
-1.90797e-13
-9.41831e-13
-1.65977e-12
-2.32506e-12
-2.75819e-12
-3.38414e-12
-2.29495e-12
4.80929e-12
8.45423e-12
7.62185e-12
7.16098e-12
6.58113e-12
5.86512e-12
5.12831e-12
4.3817e-12
3.63002e-12
2.87494e-12
2.11456e-12
1.34754e-12
5.74393e-13
-1.97546e-13
-9.55514e-13
-1.68313e-12
-2.35831e-12
-2.82471e-12
-3.32218e-12
-2.24108e-12
4.95668e-12
8.70789e-12
8.0021e-12
7.38382e-12
6.70611e-12
5.93944e-12
5.17053e-12
4.40565e-12
3.64406e-12
2.88294e-12
2.11791e-12
1.34682e-12
5.70158e-13
-2.0891e-13
-9.7812e-13
-1.72489e-12
-2.43239e-12
-2.97382e-12
-3.48464e-12
-2.36521e-12
)
;

boundaryField
{
    top
    {
        type            zeroGradient;
    }
    bottom
    {
        type            zeroGradient;
    }
    inlet
    {
        type            fixedValue;
        value           uniform 0;
    }
    outlet
    {
        type            fixedValue;
        value           uniform 0;
    }
    frontAndBack
    {
        type            empty;
    }
}


// ************************************************************************* //
