/*--------------------------------*- C++ -*----------------------------------*\
  =========                 |
  \\      /  F ield         | OpenFOAM: The Open Source CFD Toolbox
   \\    /   O peration     | Website:  https://openfoam.org
    \\  /    A nd           | Version:  9
     \\/     M anipulation  |
\*---------------------------------------------------------------------------*/
FoamFile
{
    format      ascii;
    class       surfaceScalarField;
    location    "4.9";
    object      phi;
}
// * * * * * * * * * * * * * * * * * * * * * * * * * * * * * * * * * * * * * //

dimensions      [0 3 -1 0 0 0 0];

internalField   nonuniform List<scalar> 
760
(
1.25e-06
-3.0308e-17
1.25e-06
-2.52208e-17
1.25e-06
-1.20128e-17
1.25e-06
-6.83403e-18
1.25e-06
-3.92265e-18
1.25e-06
-2.15606e-18
1.25e-06
-1.18145e-18
1.25e-06
-6.18286e-19
1.25e-06
-3.01804e-19
1.25e-06
-1.3732e-19
1.25e-06
-5.1891e-20
1.25e-06
1.34771e-21
1.25e-06
4.95554e-20
1.25e-06
1.27268e-19
1.25e-06
3.03163e-19
1.25e-06
7.68315e-19
1.25e-06
1.83357e-18
1.25e-06
4.09724e-18
1.25e-06
1.29093e-17
1.49018e-17
3.75e-06
-7.29654e-17
3.75e-06
-6.83741e-17
3.75e-06
-3.90923e-17
3.75e-06
-2.32681e-17
3.75e-06
-1.37317e-17
3.75e-06
-7.8138e-18
3.75e-06
-4.36438e-18
3.75e-06
-2.34851e-18
3.75e-06
-1.1946e-18
3.75e-06
-5.57465e-19
3.75e-06
-2.08343e-19
3.75e-06
3.62631e-21
3.75e-06
1.84247e-19
3.75e-06
4.68383e-19
3.75e-06
1.09607e-18
3.75e-06
2.6098e-18
3.75e-06
5.98639e-18
3.75e-06
1.28527e-17
3.75e-06
3.1329e-17
3.31115e-17
6.25e-06
-1.10976e-16
6.25e-06
-1.1134e-16
6.25e-06
-7.07761e-17
6.25e-06
-4.38312e-17
6.25e-06
-2.65612e-17
6.25e-06
-1.54786e-17
6.25e-06
-8.78455e-18
6.25e-06
-4.80432e-18
6.25e-06
-2.49159e-18
6.25e-06
-1.18566e-18
6.25e-06
-4.58555e-19
6.25e-06
-2.40222e-20
6.25e-06
3.34237e-19
6.25e-06
8.67877e-19
6.25e-06
2.01553e-18
6.25e-06
4.66844e-18
6.25e-06
1.0374e-17
6.25e-06
2.14584e-17
6.25e-06
4.54597e-17
4.54951e-17
8.75e-06
-1.39437e-16
8.75e-06
-1.45229e-16
8.75e-06
-9.88543e-17
8.75e-06
-6.34336e-17
8.75e-06
-3.93729e-17
8.75e-06
-2.33997e-17
8.75e-06
-1.34617e-17
8.75e-06
-7.45232e-18
8.75e-06
-3.91058e-18
8.75e-06
-1.88837e-18
8.75e-06
-7.57967e-19
8.75e-06
-9.60021e-20
8.75e-06
4.18836e-19
8.75e-06
1.14416e-18
8.75e-06
2.66423e-18
8.75e-06
6.08929e-18
8.75e-06
1.32749e-17
8.75e-06
2.65457e-17
8.75e-06
5.19201e-17
5.03566e-17
1.125e-05
-1.55443e-16
1.125e-05
-1.65516e-16
1.125e-05
-1.18264e-16
1.125e-05
-7.81581e-17
1.125e-05
-4.95409e-17
1.125e-05
-2.99372e-17
1.125e-05
-1.74249e-17
1.125e-05
-9.73353e-18
1.125e-05
-5.14989e-18
1.125e-05
-2.50941e-18
1.125e-05
-1.0361e-18
1.125e-05
-2.08689e-19
1.125e-05
3.80658e-19
1.125e-05
1.15274e-18
1.125e-05
2.74059e-18
1.125e-05
6.29191e-18
1.125e-05
1.3656e-17
1.125e-05
2.67234e-17
1.125e-05
4.98423e-17
4.72444e-17
1.375e-05
-1.58221e-16
1.375e-05
-1.70653e-16
1.375e-05
-1.26341e-16
1.375e-05
-8.55177e-17
1.375e-05
-5.51897e-17
1.375e-05
-3.38221e-17
1.375e-05
-1.98718e-17
1.375e-05
-1.11656e-17
1.375e-05
-5.93138e-18
1.375e-05
-2.90592e-18
1.375e-05
-1.23213e-18
1.375e-05
-3.3952e-19
1.375e-05
1.98713e-19
1.375e-05
8.13116e-19
1.375e-05
2.09345e-18
1.375e-05
5.03862e-18
1.375e-05
1.12344e-17
1.375e-05
2.1898e-17
1.375e-05
4.00223e-17
3.70027e-17
1.625e-05
-1.48296e-16
1.625e-05
-1.60952e-16
1.625e-05
-1.22371e-16
1.625e-05
-8.44295e-17
1.625e-05
-5.53126e-17
1.625e-05
-3.42982e-17
1.625e-05
-2.03008e-17
1.625e-05
-1.14361e-17
1.625e-05
-6.06506e-18
1.625e-05
-2.96245e-18
1.625e-05
-1.28504e-18
1.625e-05
-4.70506e-19
1.625e-05
-1.13441e-19
1.625e-05
1.414e-19
1.625e-05
7.43793e-19
1.625e-05
2.41198e-18
1.625e-05
6.28519e-18
1.625e-05
1.28456e-17
1.625e-05
2.4045e-17
2.1066e-17
1.875e-05
-1.27271e-16
1.875e-05
-1.38123e-16
1.875e-05
-1.07164e-16
1.875e-05
-7.50554e-17
1.875e-05
-4.9822e-17
1.875e-05
-3.11913e-17
1.875e-05
-1.8549e-17
1.875e-05
-1.04319e-17
1.875e-05
-5.48136e-18
1.875e-05
-2.64009e-18
1.875e-05
-1.1661e-18
1.875e-05
-5.63269e-19
1.875e-05
-5.20095e-19
1.875e-05
-7.95848e-19
1.875e-05
-1.14845e-18
1.875e-05
-1.25108e-18
1.875e-05
-5.16019e-19
1.875e-05
8.42484e-19
1.875e-05
3.96278e-18
1.28204e-18
2.125e-05
-9.74831e-17
2.125e-05
-1.04839e-16
2.125e-05
-8.26931e-17
2.125e-05
-5.8653e-17
2.125e-05
-3.94234e-17
2.125e-05
-2.4904e-17
2.125e-05
-1.4836e-17
2.125e-05
-8.26772e-18
2.125e-05
-4.23465e-18
2.125e-05
-1.95896e-18
2.125e-05
-8.71558e-19
2.125e-05
-6.01282e-19
2.125e-05
-9.639e-19
2.125e-05
-1.86886e-18
2.125e-05
-3.33584e-18
2.125e-05
-5.46453e-18
2.125e-05
-8.26063e-18
2.125e-05
-1.25821e-17
2.125e-05
-1.80202e-17
-2.03334e-17
2.375e-05
-6.18277e-17
2.375e-05
-6.449e-17
2.375e-05
-5.18225e-17
2.375e-05
-3.7308e-17
2.375e-05
-2.55203e-17
2.375e-05
-1.63062e-17
2.375e-05
-9.69246e-18
2.375e-05
-5.25767e-18
2.375e-05
-2.51222e-18
2.375e-05
-1.01762e-18
2.375e-05
-4.37769e-19
2.375e-05
-5.78306e-19
2.375e-05
-1.38091e-18
2.375e-05
-2.9229e-18
2.375e-05
-5.50325e-18
2.375e-05
-9.65135e-18
2.375e-05
-1.59546e-17
2.375e-05
-2.58555e-17
2.375e-05
-3.97131e-17
-4.17629e-17
2.625e-05
-2.35722e-17
2.625e-05
-2.09486e-17
2.625e-05
-1.80131e-17
2.625e-05
-1.36897e-17
2.625e-05
-9.99977e-18
2.625e-05
-6.63541e-18
2.625e-05
-3.88514e-18
2.625e-05
-1.86036e-18
2.625e-05
-5.81939e-19
2.625e-05
2.69681e-20
2.625e-05
5.52778e-20
2.625e-05
-4.93487e-19
2.625e-05
-1.69907e-18
2.625e-05
-3.8164e-18
2.625e-05
-7.35599e-18
2.625e-05
-1.32613e-17
2.625e-05
-2.26693e-17
2.625e-05
-3.74887e-17
2.625e-05
-5.90682e-17
-6.10703e-17
2.875e-05
1.38301e-17
2.875e-05
2.16494e-17
2.875e-05
1.49564e-17
2.875e-05
9.22637e-18
2.875e-05
5.03119e-18
2.875e-05
2.70006e-18
2.875e-05
1.70904e-18
2.875e-05
1.38075e-18
2.875e-05
1.24563e-18
2.875e-05
1.0097e-18
2.875e-05
5.20628e-19
2.875e-05
-3.69219e-19
2.875e-05
-1.89249e-18
2.875e-05
-4.41794e-18
2.875e-05
-8.64375e-18
2.875e-05
-1.58218e-17
2.875e-05
-2.75826e-17
2.875e-05
-4.62313e-17
2.875e-05
-7.43048e-17
-7.65334e-17
3.125e-05
4.69438e-17
3.125e-05
5.91309e-17
3.125e-05
4.32819e-17
3.125e-05
2.85024e-17
3.125e-05
1.74957e-17
3.125e-05
1.03526e-17
3.125e-05
6.2281e-18
3.125e-05
3.96854e-18
3.125e-05
2.67023e-18
3.125e-05
1.76109e-18
3.125e-05
8.9013e-19
3.125e-05
-2.40364e-19
3.125e-05
-1.92824e-18
3.125e-05
-4.63268e-18
3.125e-05
-9.18134e-18
3.125e-05
-1.70066e-17
3.125e-05
-3.01132e-17
3.125e-05
-5.11117e-17
3.125e-05
-8.3964e-17
-8.67197e-17
3.375e-05
7.25418e-17
3.375e-05
8.75034e-17
3.375e-05
6.34762e-17
3.375e-05
4.15836e-17
3.375e-05
2.56783e-17
3.375e-05
1.52383e-17
3.375e-05
9.0512e-18
3.375e-05
5.52737e-18
3.375e-05
3.4881e-18
3.375e-05
2.16126e-18
3.375e-05
1.08506e-18
3.375e-05
-1.30662e-19
3.375e-05
-1.80888e-18
3.375e-05
-4.444e-18
3.375e-05
-8.88041e-18
3.375e-05
-1.66539e-17
3.375e-05
-2.99253e-17
3.375e-05
-5.15282e-17
3.375e-05
-8.6997e-17
-9.05579e-17
3.625e-05
8.77614e-17
3.625e-05
1.03284e-16
3.625e-05
7.28422e-17
3.625e-05
4.67327e-17
3.625e-05
2.85548e-17
3.625e-05
1.67804e-17
3.625e-05
9.83932e-18
3.625e-05
5.87204e-18
3.625e-05
3.59783e-18
3.625e-05
2.16737e-18
3.625e-05
1.08056e-18
3.625e-05
-4.16226e-20
3.625e-05
-1.53769e-18
3.625e-05
-3.87687e-18
3.625e-05
-7.83062e-18
3.625e-05
-1.48064e-17
3.625e-05
-2.70312e-17
3.625e-05
-4.73651e-17
3.625e-05
-8.28643e-17
-8.74332e-17
3.875e-05
9.06199e-17
3.875e-05
1.04022e-16
3.875e-05
6.99571e-17
3.875e-05
4.34604e-17
3.875e-05
2.60666e-17
3.875e-05
1.50684e-17
3.875e-05
8.69146e-18
3.875e-05
5.11969e-18
3.875e-05
3.07754e-18
3.875e-05
1.82619e-18
3.875e-05
9.12262e-19
3.875e-05
-5.89326e-21
3.875e-05
-1.17888e-18
3.875e-05
-3.01339e-18
3.875e-05
-6.15134e-18
3.875e-05
-1.17396e-17
3.875e-05
-2.18262e-17
3.875e-05
-3.9023e-17
3.875e-05
-7.16693e-17
-7.72836e-17
4.125e-05
8.00916e-17
4.125e-05
8.88476e-17
4.125e-05
5.55196e-17
4.125e-05
3.29918e-17
4.125e-05
1.93161e-17
4.125e-05
1.09169e-17
4.125e-05
6.18939e-18
4.125e-05
3.59507e-18
4.125e-05
2.14823e-18
4.125e-05
1.26445e-18
4.125e-05
6.1965e-19
4.125e-05
-2.24689e-22
4.125e-05
-7.76117e-19
4.125e-05
-2.00652e-18
4.125e-05
-4.11179e-18
4.125e-05
-7.95174e-18
4.125e-05
-1.51071e-17
4.125e-05
-2.76091e-17
4.125e-05
-5.43158e-17
-6.07636e-17
4.375e-05
5.73222e-17
4.375e-05
5.99809e-17
4.375e-05
3.31431e-17
4.375e-05
1.86179e-17
4.375e-05
1.06077e-17
4.375e-05
5.81677e-18
4.375e-05
3.23283e-18
4.375e-05
1.86282e-18
4.375e-05
1.10782e-18
4.375e-05
6.61793e-19
4.375e-05
3.10727e-19
4.375e-05
1.28068e-20
4.375e-05
-3.90985e-19
4.375e-05
-1.04021e-18
4.375e-05
-2.12195e-18
4.375e-05
-4.14838e-18
4.375e-05
-8.12014e-18
4.375e-05
-1.50711e-17
4.375e-05
-3.30417e-17
-3.95468e-17
4.625e-05
2.53347e-17
4.625e-05
2.42762e-17
4.625e-05
1.08313e-17
4.625e-05
5.58283e-18
4.625e-05
3.13083e-18
4.625e-05
1.6279e-18
4.625e-05
8.80286e-19
4.625e-05
5.05478e-19
4.625e-05
3.00552e-19
4.625e-05
1.78198e-19
4.625e-05
9.20784e-20
4.625e-05
1.33016e-20
4.625e-05
-1.17344e-19
4.625e-05
-2.96854e-19
4.625e-05
-6.07722e-19
4.625e-05
-1.20838e-18
4.625e-05
-2.45868e-18
4.625e-05
-4.5501e-18
4.625e-05
-1.20831e-17
-1.63692e-17
4.875e-05
4.875e-05
4.875e-05
4.875e-05
4.875e-05
4.875e-05
4.875e-05
4.875e-05
4.875e-05
4.875e-05
4.875e-05
4.875e-05
4.875e-05
4.875e-05
4.875e-05
4.875e-05
4.875e-05
4.875e-05
4.875e-05
)
;

boundaryField
{
    top
    {
        type            calculated;
        value           uniform 0;
    }
    bottom
    {
        type            calculated;
        value           uniform 0;
    }
    inlet
    {
        type            calculated;
        value           nonuniform List<scalar> 
20
(
-1.25e-06
-3.75e-06
-6.25e-06
-8.75e-06
-1.125e-05
-1.375e-05
-1.625e-05
-1.875e-05
-2.125e-05
-2.375e-05
-2.625e-05
-2.875e-05
-3.125e-05
-3.375e-05
-3.625e-05
-3.875e-05
-4.125e-05
-4.375e-05
-4.625e-05
-4.875e-05
)
;
    }
    outlet
    {
        type            calculated;
        value           nonuniform List<scalar> 
20
(
1.25e-06
3.75e-06
6.25e-06
8.75e-06
1.125e-05
1.375e-05
1.625e-05
1.875e-05
2.125e-05
2.375e-05
2.625e-05
2.875e-05
3.125e-05
3.375e-05
3.625e-05
3.875e-05
4.125e-05
4.375e-05
4.625e-05
4.875e-05
)
;
    }
    frontAndBack
    {
        type            empty;
        value           nonuniform List<scalar> 0();
    }
}


// ************************************************************************* //
