/*--------------------------------*- C++ -*----------------------------------*\
  =========                 |
  \\      /  F ield         | OpenFOAM: The Open Source CFD Toolbox
   \\    /   O peration     | Website:  https://openfoam.org
    \\  /    A nd           | Version:  9
     \\/     M anipulation  |
\*---------------------------------------------------------------------------*/
FoamFile
{
    format      ascii;
    class       volVectorField;
    location    "4.9";
    object      U;
}
// * * * * * * * * * * * * * * * * * * * * * * * * * * * * * * * * * * * * * //

dimensions      [0 1 -1 0 0 0 0];

internalField   nonuniform List<vector> 
400
(
(0.025 -1.48512e-13 0)
(0.025 -1.18982e-13 0)
(0.025 -5.01942e-14 0)
(0.025 -2.67678e-14 0)
(0.025 -1.47626e-14 0)
(0.025 -7.8252e-15 0)
(0.025 -4.21554e-15 0)
(0.025 -2.10654e-15 0)
(0.025 -9.49398e-16 0)
(0.025 -4.04229e-16 0)
(0.025 -1.47232e-16 0)
(0.025 2.299e-17 0)
(0.025 1.94544e-16 0)
(0.025 4.87877e-16 0)
(0.025 1.17102e-15 0)
(0.025 3.12222e-15 0)
(0.025 7.79782e-15 0)
(0.025 1.85832e-14 0)
(0.025 6.52119e-14 0)
(0.025 7.63846e-14 0)
(0.075 -5.10931e-13 0)
(0.075 -4.54428e-13 0)
(0.075 -2.37412e-13 0)
(0.075 -1.36291e-13 0)
(0.075 -7.87047e-14 0)
(0.075 -4.37592e-14 0)
(0.075 -2.40531e-14 0)
(0.075 -1.27114e-14 0)
(0.075 -6.30102e-15 0)
(0.075 -2.85845e-15 0)
(0.075 -1.02039e-15 0)
(0.075 1.04149e-16 0)
(0.075 1.09526e-15 0)
(0.075 2.71489e-15 0)
(0.075 6.39528e-15 0)
(0.075 1.56831e-14 0)
(0.075 3.69082e-14 0)
(0.075 8.21227e-14 0)
(0.075 2.22851e-13 0)
(0.075 2.44568e-13 0)
(0.125 -9.28835e-13 0)
(0.125 -9.02048e-13 0)
(0.125 -5.44846e-13 0)
(0.125 -3.29684e-13 0)
(0.125 -1.96658e-13 0)
(0.125 -1.1308e-13 0)
(0.125 -6.35904e-14 0)
(0.125 -3.44498e-14 0)
(0.125 -1.76756e-14 0)
(0.125 -8.32088e-15 0)
(0.125 -3.15086e-15 0)
(0.125 -1.54983e-17 0)
(0.125 2.65388e-15 0)
(0.125 6.76141e-15 0)
(0.125 1.57192e-14 0)
(0.125 3.68274e-14 0)
(0.125 8.3026e-14 0)
(0.125 1.75179e-13 0)
(0.125 3.94148e-13 0)
(0.125 4.0539e-13 0)
(0.175 -1.27801e-12 0)
(0.175 -1.30706e-12 0)
(0.175 -8.61871e-13 0)
(0.175 -5.42911e-13 0)
(0.175 -3.32614e-13 0)
(0.175 -1.95562e-13 0)
(0.175 -1.11644e-13 0)
(0.175 -6.14188e-14 0)
(0.175 -3.20503e-14 0)
(0.175 -1.5368e-14 0)
(0.175 -6.04346e-15 0)
(0.175 -4.96747e-16 0)
(0.175 3.99738e-15 0)
(0.175 1.05571e-14 0)
(0.175 2.44602e-14 0)
(0.175 5.6076e-14 0)
(0.175 1.23086e-13 0)
(0.175 2.49846e-13 0)
(0.175 5.04633e-13 0)
(0.175 4.97907e-13 0)
(0.225 -1.50703e-12 0)
(0.225 -1.58811e-12 0)
(0.225 -1.11043e-12 0)
(0.225 -7.23376e-13 0)
(0.225 -4.53631e-13 0)
(0.225 -2.71808e-13 0)
(0.225 -1.57264e-13 0)
(0.225 -8.74778e-14 0)
(0.225 -4.61313e-14 0)
(0.225 -2.24021e-14 0)
(0.225 -9.11386e-15 0)
(0.225 -1.45065e-15 0)
(0.225 4.3352e-15 0)
(0.225 1.22696e-14 0)
(0.225 2.86786e-14 0)
(0.225 6.52876e-14 0)
(0.225 1.41301e-13 0)
(0.225 2.78532e-13 0)
(0.225 5.28081e-13 0)
(0.225 5.07138e-13 0)
(0.275 -1.6011e-12 0)
(0.275 -1.71701e-12 0)
(0.275 -1.25213e-12 0)
(0.275 -8.38311e-13 0)
(0.275 -5.36377e-13 0)
(0.275 -3.26526e-13 0)
(0.275 -1.91016e-13 0)
(0.275 -1.07086e-13 0)
(0.275 -5.68415e-14 0)
(0.275 -2.78163e-14 0)
(0.275 -1.16503e-14 0)
(0.275 -2.73236e-15 0)
(0.275 3.24306e-15 0)
(0.275 1.06881e-14 0)
(0.275 2.59628e-14 0)
(0.275 6.01881e-14 0)
(0.275 1.3105e-13 0)
(0.275 2.54414e-13 0)
(0.275 4.65877e-13 0)
(0.275 4.37397e-13 0)
(0.325 -1.56258e-12 0)
(0.325 -1.6918e-12 0)
(0.325 -1.27249e-12 0)
(0.325 -8.70804e-13 0)
(0.325 -5.66642e-13 0)
(0.325 -3.49532e-13 0)
(0.325 -2.06265e-13 0)
(0.325 -1.16165e-13 0)
(0.325 -6.1764e-14 0)
(0.325 -3.02895e-14 0)
(0.325 -1.30146e-14 0)
(0.325 -4.11936e-15 0)
(0.325 6.96672e-16 0)
(0.325 5.51038e-15 0)
(0.325 1.57271e-14 0)
(0.325 4.02233e-14 0)
(0.325 9.29382e-14 0)
(0.325 1.82408e-13 0)
(0.325 3.32561e-13 0)
(0.325 3.02327e-13 0)
(0.375 -1.40287e-12 0)
(0.375 -1.52395e-12 0)
(0.375 -1.17318e-12 0)
(0.375 -8.16754e-13 0)
(0.375 -5.39071e-13 0)
(0.375 -3.36138e-13 0)
(0.375 -1.99607e-13 0)
(0.375 -1.12515e-13 0)
(0.375 -5.9541e-14 0)
(0.375 -2.89945e-14 0)
(0.375 -1.27308e-14 0)
(0.375 -5.30633e-15 0)
(0.375 -3.02959e-15 0)
(0.375 -2.80032e-15 0)
(0.375 -1.01961e-15 0)
(0.375 7.70885e-15 0)
(0.375 3.21827e-14 0)
(0.375 7.36605e-14 0)
(0.375 1.47203e-13 0)
(0.375 1.18884e-13 0)
(0.425 -1.1422e-12 0)
(0.425 -1.23608e-12 0)
(0.425 -9.68843e-13 0)
(0.425 -6.83747e-13 0)
(0.425 -4.56996e-13 0)
(0.425 -2.87582e-13 0)
(0.425 -1.71356e-13 0)
(0.425 -9.61393e-14 0)
(0.425 -5.00941e-14 0)
(0.425 -2.382e-14 0)
(0.425 -1.0609e-14 0)
(0.425 -6.00328e-15 0)
(0.425 -7.44283e-15 0)
(0.425 -1.3206e-14 0)
(0.425 -2.21265e-14 0)
(0.425 -3.30067e-14 0)
(0.425 -4.28894e-14 0)
(0.425 -5.72939e-14 0)
(0.425 -6.83788e-14 0)
(0.425 -9.31744e-14 0)
(0.475 -8.07181e-13 0)
(0.475 -8.5911e-13 0)
(0.475 -6.84339e-13 0)
(0.475 -4.89072e-13 0)
(0.475 -3.31372e-13 0)
(0.475 -2.10484e-13 0)
(0.475 -1.25427e-13 0)
(0.475 -6.9277e-14 0)
(0.475 -3.46653e-14 0)
(0.475 -1.53889e-14 0)
(0.475 -6.82613e-15 0)
(0.475 -6.07706e-15 0)
(0.475 -1.18964e-14 0)
(0.475 -2.42182e-14 0)
(0.475 -4.46492e-14 0)
(0.475 -7.63929e-14 0)
(0.475 -1.2247e-13 0)
(0.475 -1.94514e-13 0)
(0.475 -2.91832e-13 0)
(0.475 -3.13369e-13 0)
(0.525 -4.29137e-13 0)
(0.525 -4.29933e-13 0)
(0.525 -3.51976e-13 0)
(0.525 -2.57189e-13 0)
(0.525 -1.79202e-13 0)
(0.525 -1.15788e-13 0)
(0.525 -6.8553e-14 0)
(0.525 -3.59631e-14 0)
(0.525 -1.56438e-14 0)
(0.525 -5.03686e-15 0)
(0.525 -1.9829e-15 0)
(0.525 -5.4935e-15 0)
(0.525 -1.56996e-14 0)
(0.525 -3.42936e-14 0)
(0.525 -6.54334e-14 0)
(0.525 -1.16629e-13 0)
(0.525 -1.96651e-13 0)
(0.525 -3.22388e-13 0)
(0.525 -5.01664e-13 0)
(0.525 -5.21631e-13 0)
(0.575 -4.2131e-14 0)
(0.575 1.08669e-14 0)
(0.575 -8.68583e-15 0)
(0.575 -1.70885e-14 0)
(0.575 -2.11204e-14 0)
(0.575 -1.72153e-14 0)
(0.575 -9.31584e-15 0)
(0.575 -1.41002e-15 0)
(0.575 3.93176e-15 0)
(0.575 5.5485e-15 0)
(0.575 3.03957e-15 0)
(0.575 -4.37762e-15 0)
(0.575 -1.83272e-14 0)
(0.575 -4.20233e-14 0)
(0.575 -8.16654e-14 0)
(0.575 -1.4845e-13 0)
(0.575 -2.56468e-13 0)
(0.575 -4.26968e-13 0)
(0.575 -6.78489e-13 0)
(0.575 -6.99436e-13 0)
(0.625 3.18852e-13 0)
(0.625 4.21102e-13 0)
(0.625 3.06822e-13 0)
(0.625 2.00832e-13 0)
(0.625 1.21204e-13 0)
(0.625 7.08833e-14 0)
(0.625 4.32098e-14 0)
(0.625 2.89005e-14 0)
(0.625 2.08712e-14 0)
(0.625 1.45971e-14 0)
(0.625 7.40939e-15 0)
(0.625 -3.0351e-15 0)
(0.625 -1.94892e-14 0)
(0.625 -4.62312e-14 0)
(0.625 -9.10698e-14 0)
(0.625 -1.67753e-13 0)
(0.625 -2.94769e-13 0)
(0.625 -4.96931e-13 0)
(0.625 -8.05902e-13 0)
(0.625 -8.30788e-13 0)
(0.675 6.20035e-13 0)
(0.675 7.59305e-13 0)
(0.675 5.57155e-13 0)
(0.675 3.68137e-13 0)
(0.675 2.28026e-13 0)
(0.675 1.35781e-13 0)
(0.675 8.12242e-14 0)
(0.675 5.03773e-14 0)
(0.675 3.24999e-14 0)
(0.675 2.05771e-14 0)
(0.675 1.03555e-14 0)
(0.675 -1.77178e-15 0)
(0.675 -1.90424e-14 0)
(0.675 -4.63445e-14 0)
(0.675 -9.22737e-14 0)
(0.675 -1.72006e-13 0)
(0.675 -3.06805e-13 0)
(0.675 -5.24242e-13 0)
(0.675 -8.71176e-13 0)
(0.675 -9.02998e-13 0)
(0.725 8.3029e-13 0)
(0.725 9.87202e-13 0)
(0.725 7.10281e-13 0)
(0.725 4.62324e-13 0)
(0.725 2.84893e-13 0)
(0.725 1.68663e-13 0)
(0.725 9.96211e-14 0)
(0.725 6.00404e-14 0)
(0.725 3.71818e-14 0)
(0.725 2.26264e-14 0)
(0.725 1.13206e-14 0)
(0.725 -7.43661e-16 0)
(0.725 -1.69968e-14 0)
(0.725 -4.24101e-14 0)
(0.725 -8.52551e-14 0)
(0.725 -1.60593e-13 0)
(0.725 -2.90862e-13 0)
(0.725 -5.05129e-13 0)
(0.725 -8.66138e-13 0)
(0.725 -9.07433e-13 0)
(0.775 9.2465e-13 0)
(0.775 1.0736e-12 0)
(0.775 7.43767e-13 0)
(0.775 4.71045e-13 0)
(0.775 2.85651e-13 0)
(0.775 1.66746e-13 0)
(0.775 9.70189e-14 0)
(0.775 5.74589e-14 0)
(0.775 3.4789e-14 0)
(0.775 2.07433e-14 0)
(0.775 1.03513e-14 0)
(0.775 -1.32111e-16 0)
(0.775 -1.37328e-14 0)
(0.775 -3.49567e-14 0)
(0.775 -7.10385e-14 0)
(0.775 -1.35047e-13 0)
(0.775 -2.48857e-13 0)
(0.775 -4.40632e-13 0)
(0.775 -7.88071e-13 0)
(0.775 -8.40385e-13 0)
(0.825 8.84252e-13 0)
(0.825 9.97332e-13 0)
(0.825 6.50692e-13 0)
(0.825 3.96175e-13 0)
(0.825 2.3485e-13 0)
(0.825 1.34311e-13 0)
(0.825 7.67892e-14 0)
(0.825 4.48666e-14 0)
(0.825 2.68263e-14 0)
(0.825 1.58189e-14 0)
(0.825 7.8407e-15 0)
(0.825 5.33337e-17 0)
(0.825 -9.76484e-15 0)
(0.825 -2.5169e-14 0)
(0.825 -5.1569e-14 0)
(0.825 -9.91439e-14 0)
(0.825 -1.86436e-13 0)
(0.825 -3.37408e-13 0)
(0.825 -6.40072e-13 0)
(0.825 -7.03107e-13 0)
(0.875 7.06286e-13 0)
(0.875 7.61837e-13 0)
(0.875 4.50963e-13 0)
(0.875 2.60328e-13 0)
(0.875 1.50076e-13 0)
(0.875 8.35144e-14 0)
(0.875 4.68336e-14 0)
(0.875 2.70315e-14 0)
(0.875 1.60794e-14 0)
(0.875 9.4877e-15 0)
(0.875 4.56933e-15 0)
(0.875 7.23754e-17 0)
(0.875 -5.67501e-15 0)
(0.875 -1.48578e-14 0)
(0.875 -3.04142e-14 0)
(0.875 -5.91581e-14 0)
(0.875 -1.1413e-13 0)
(0.875 -2.10897e-13 0)
(0.875 -4.37083e-13 0)
(0.875 -5.05273e-13 0)
(0.925 4.19521e-13 0)
(0.925 4.22413e-13 0)
(0.925 2.12309e-13 0)
(0.925 1.12817e-13 0)
(0.925 6.29521e-14 0)
(0.925 3.35133e-14 0)
(0.925 1.82739e-14 0)
(0.925 1.04681e-14 0)
(0.925 6.21881e-15 0)
(0.925 3.72185e-15 0)
(0.925 1.78243e-15 0)
(0.925 1.37863e-16 0)
(0.925 -2.2667e-15 0)
(0.925 -5.98066e-15 0)
(0.925 -1.22399e-14 0)
(0.925 -2.42018e-14 0)
(0.925 -4.84472e-14 0)
(0.925 -9.08898e-14 0)
(0.925 -2.18481e-13 0)
(0.925 -2.75608e-13 0)
(0.975 1.29704e-13 0)
(0.975 1.21293e-13 0)
(0.975 4.86108e-14 0)
(0.975 2.26814e-14 0)
(0.975 1.21801e-14 0)
(0.975 6.00457e-15 0)
(0.975 3.13163e-15 0)
(0.975 1.77523e-15 0)
(0.975 1.06174e-15 0)
(0.975 6.3207e-16 0)
(0.975 3.12232e-16 0)
(0.975 2.26485e-17 0)
(0.975 -4.99579e-16 0)
(0.975 -1.22899e-15 0)
(0.975 -2.44069e-15 0)
(0.975 -4.83281e-15 0)
(0.975 -1.01637e-14 0)
(0.975 -1.91118e-14 0)
(0.975 -5.70013e-14 0)
(0.975 -7.95825e-14 0)
)
;

boundaryField
{
    top
    {
        type            fixedValue;
        value           uniform (1 0 0);
    }
    bottom
    {
        type            fixedValue;
        value           uniform (0 0 0);
    }
    inlet
    {
        type            zeroGradient;
    }
    outlet
    {
        type            zeroGradient;
    }
    frontAndBack
    {
        type            empty;
    }
}


// ************************************************************************* //
