/*--------------------------------*- C++ -*----------------------------------*\
  =========                 |
  \\      /  F ield         | OpenFOAM: The Open Source CFD Toolbox
   \\    /   O peration     | Website:  https://openfoam.org
    \\  /    A nd           | Version:  9
     \\/     M anipulation  |
\*---------------------------------------------------------------------------*/
FoamFile
{
    format      ascii;
    class       volScalarField;
    location    "4.5";
    object      p;
}
// * * * * * * * * * * * * * * * * * * * * * * * * * * * * * * * * * * * * * //

dimensions      [0 2 -2 0 0 0 0];

internalField   nonuniform List<scalar> 
400
(
1.67061e-11
2.7686e-11
2.67713e-11
2.54666e-11
2.33219e-11
2.07809e-11
1.81336e-11
1.54402e-11
1.27454e-11
1.00721e-11
7.40816e-12
4.73634e-12
2.05072e-12
-6.47798e-13
-3.3564e-12
-6.07987e-12
-8.74803e-12
-1.11683e-11
-1.42273e-11
-8.98887e-12
1.58471e-11
2.6384e-11
2.53889e-11
2.46382e-11
2.28191e-11
2.04776e-11
1.7958e-11
1.53419e-11
1.26927e-11
1.00457e-11
7.39689e-12
4.73484e-12
2.05824e-12
-6.26773e-13
-3.30732e-12
-5.97394e-12
-8.52352e-12
-1.06533e-11
-1.38917e-11
-8.75995e-12
1.60211e-11
2.64968e-11
2.46095e-11
2.41006e-11
2.2458e-11
2.02391e-11
1.78109e-11
1.52548e-11
1.26424e-11
1.00172e-11
7.38172e-12
4.72894e-12
2.06089e-12
-6.12874e-13
-3.27332e-12
-5.90735e-12
-8.40817e-12
-1.04007e-11
-1.43377e-11
-9.08158e-12
1.66357e-11
2.76508e-11
2.4445e-11
2.38738e-11
2.22629e-11
2.00844e-11
1.77044e-11
1.51851e-11
1.25971e-11
9.98768e-12
7.36273e-12
4.71802e-12
2.05691e-12
-6.09654e-13
-3.2612e-12
-5.89068e-12
-8.40874e-12
-1.04184e-11
-1.5242e-11
-9.58017e-12
1.73095e-11
2.92509e-11
2.45988e-11
2.38224e-11
2.21678e-11
1.99823e-11
1.7623e-11
1.51252e-11
1.25536e-11
9.9563e-12
7.34061e-12
4.70292e-12
2.04707e-12
-6.15846e-13
-3.26665e-12
-5.9083e-12
-8.47893e-12
-1.05667e-11
-1.62539e-11
-1.00542e-11
1.79317e-11
3.098e-11
2.49101e-11
2.38657e-11
2.21322e-11
1.99114e-11
1.75559e-11
1.50703e-11
1.25106e-11
9.92313e-12
7.31582e-12
4.68455e-12
2.03266e-12
-6.29189e-13
-3.28412e-12
-5.94604e-12
-8.58204e-12
-1.07606e-11
-1.71822e-11
-1.04398e-11
1.84804e-11
3.26628e-11
2.52872e-11
2.39546e-11
2.21286e-11
1.98582e-11
1.74959e-11
1.50173e-11
1.24673e-11
9.88897e-12
7.2892e-12
4.66365e-12
2.01513e-12
-6.47181e-13
-3.30818e-12
-5.99144e-12
-8.69189e-12
-1.09486e-11
-1.79294e-11
-1.07259e-11
1.89341e-11
3.41558e-11
2.56565e-11
2.40464e-11
2.21316e-11
1.98096e-11
1.74372e-11
1.49636e-11
1.2423e-11
9.85379e-12
7.26168e-12
4.64167e-12
1.99584e-12
-6.66643e-13
-3.33276e-12
-6.03228e-12
-8.78476e-12
-1.10927e-11
-1.84281e-11
-1.0902e-11
1.92791e-11
3.53478e-11
2.5958e-11
2.41078e-11
2.21219e-11
1.97563e-11
1.73754e-11
1.49079e-11
1.23778e-11
9.81819e-12
7.23419e-12
4.61997e-12
1.97709e-12
-6.84214e-13
-3.35195e-12
-6.05773e-12
-8.84158e-12
-1.11643e-11
-1.86398e-11
-1.09649e-11
1.9505e-11
3.61568e-11
2.61509e-11
2.41175e-11
2.20879e-11
1.96933e-11
1.73094e-11
1.48507e-11
1.2332e-11
9.78321e-12
7.20769e-12
4.59964e-12
1.96095e-12
-6.96805e-13
-3.36059e-12
-6.06013e-12
-8.84895e-12
-1.11474e-11
-1.85503e-11
-1.09155e-11
1.96045e-11
3.65294e-11
2.62119e-11
2.40674e-11
2.20262e-11
1.96217e-11
1.72413e-11
1.47937e-11
1.22879e-11
9.75015e-12
7.18303e-12
4.58202e-12
1.94901e-12
-7.02553e-13
-3.35599e-12
-6.0352e-12
-8.8006e-12
-1.10368e-11
-1.81668e-11
-1.07585e-11
1.95712e-11
3.64404e-11
2.61366e-11
2.39616e-11
2.19417e-11
1.95463e-11
1.71756e-11
1.47405e-11
1.22475e-11
9.7205e-12
7.16183e-12
4.56775e-12
1.94176e-12
-7.00215e-13
-3.33717e-12
-5.98291e-12
-8.69729e-12
-1.08378e-11
-1.75142e-11
-1.05012e-11
1.93988e-11
3.58918e-11
2.59385e-11
2.38153e-11
2.18467e-11
1.94766e-11
1.71188e-11
1.46958e-11
1.22138e-11
9.69621e-12
7.14458e-12
4.55702e-12
1.93975e-12
-6.89884e-13
-3.30561e-12
-5.90775e-12
-8.54761e-12
-1.05659e-11
-1.66337e-11
-1.0154e-11
1.90857e-11
3.49196e-11
2.56505e-11
2.36556e-11
2.17588e-11
1.94238e-11
1.70786e-11
1.46642e-11
1.21902e-11
9.67834e-12
7.13191e-12
4.55079e-12
1.94158e-12
-6.75265e-13
-3.26608e-12
-5.81832e-12
-8.36644e-12
-1.0246e-11
-1.55821e-11
-9.7306e-12
1.86326e-11
3.35975e-11
2.53273e-11
2.35183e-11
2.16997e-11
1.94006e-11
1.70625e-11
1.465e-11
1.21785e-11
9.66835e-12
7.12468e-12
4.548e-12
1.94567e-12
-6.58496e-13
-3.22606e-12
-5.7273e-12
-8.17612e-12
-9.91174e-12
-1.44335e-11
-9.24962e-12
1.80524e-11
3.20442e-11
2.50418e-11
2.3445e-11
2.16915e-11
1.94181e-11
1.70755e-11
1.46562e-11
1.21797e-11
9.6667e-12
7.12206e-12
4.54734e-12
1.94996e-12
-6.44326e-13
-3.19218e-12
-5.64989e-12
-8.00413e-12
-9.60581e-12
-1.32769e-11
-8.73416e-12
1.73543e-11
3.04243e-11
2.48867e-11
2.3478e-11
2.17545e-11
1.94835e-11
1.71196e-11
1.46824e-11
1.21935e-11
9.67268e-12
7.12423e-12
4.548e-12
1.95211e-12
-6.37505e-13
-3.17418e-12
-5.60292e-12
-7.88053e-12
-9.37826e-12
-1.22163e-11
-8.21041e-12
1.66408e-11
2.90583e-11
2.50203e-11
2.36859e-11
2.1915e-11
1.96072e-11
1.71982e-11
1.47288e-11
1.22194e-11
9.68609e-12
7.12989e-12
4.54869e-12
1.9492e-12
-6.43805e-13
-3.18247e-12
-5.6066e-12
-7.84793e-12
-9.3117e-12
-1.14269e-11
-7.74867e-12
1.62375e-11
2.85448e-11
2.57345e-11
2.41797e-11
2.22204e-11
1.98053e-11
1.73161e-11
1.47976e-11
1.22584e-11
9.7066e-12
7.13905e-12
4.5484e-12
1.93892e-12
-6.67962e-13
-3.22778e-12
-5.68499e-12
-7.96092e-12
-9.53596e-12
-1.12165e-11
-7.56661e-12
1.67375e-11
2.94017e-11
2.70185e-11
2.4933e-11
2.26441e-11
2.00553e-11
1.74584e-11
1.48792e-11
1.23052e-11
9.73279e-12
7.15034e-12
4.54683e-12
1.92299e-12
-7.05804e-13
-3.30302e-12
-5.82636e-12
-8.21143e-12
-1.00395e-11
-1.17648e-11
-7.98638e-12
)
;

boundaryField
{
    top
    {
        type            zeroGradient;
    }
    bottom
    {
        type            zeroGradient;
    }
    inlet
    {
        type            fixedValue;
        value           uniform 0;
    }
    outlet
    {
        type            fixedValue;
        value           uniform 0;
    }
    frontAndBack
    {
        type            empty;
    }
}


// ************************************************************************* //
