/*--------------------------------*- C++ -*----------------------------------*\
  =========                 |
  \\      /  F ield         | OpenFOAM: The Open Source CFD Toolbox
   \\    /   O peration     | Website:  https://openfoam.org
    \\  /    A nd           | Version:  9
     \\/     M anipulation  |
\*---------------------------------------------------------------------------*/
FoamFile
{
    format      ascii;
    class       surfaceScalarField;
    location    "4.5";
    object      phi;
}
// * * * * * * * * * * * * * * * * * * * * * * * * * * * * * * * * * * * * * //

dimensions      [0 3 -1 0 0 0 0];

internalField   nonuniform List<scalar> 
760
(
1.25e-06
-1.02327e-16
1.25e-06
-8.51524e-17
1.25e-06
-4.05571e-17
1.25e-06
-2.30699e-17
1.25e-06
-1.3243e-17
1.25e-06
-7.27759e-18
1.25e-06
-3.98763e-18
1.25e-06
-2.08844e-18
1.25e-06
-1.01972e-18
1.25e-06
-4.64632e-19
1.25e-06
-1.74779e-19
1.25e-06
4.08181e-21
1.25e-06
1.67132e-19
1.25e-06
4.32449e-19
1.25e-06
1.02718e-18
1.25e-06
2.59581e-18
1.25e-06
6.1911e-18
1.25e-06
1.38338e-17
1.25e-06
4.3586e-17
5.03124e-17
3.75e-06
-2.46343e-16
3.75e-06
-2.30841e-16
3.75e-06
-1.31983e-16
3.75e-06
-7.85539e-17
3.75e-06
-4.63572e-17
3.75e-06
-2.63761e-17
3.75e-06
-1.47318e-17
3.75e-06
-7.93227e-18
3.75e-06
-4.03577e-18
3.75e-06
-1.88308e-18
3.75e-06
-7.03631e-19
3.75e-06
8.50639e-21
3.75e-06
6.24129e-19
3.75e-06
1.59114e-18
3.75e-06
3.70927e-18
3.75e-06
8.8173e-18
3.75e-06
2.02144e-17
3.75e-06
4.33992e-17
3.75e-06
1.05777e-16
1.11791e-16
6.25e-06
-3.74676e-16
6.25e-06
-3.75899e-16
6.25e-06
-2.38953e-16
6.25e-06
-1.47973e-16
6.25e-06
-8.96682e-17
6.25e-06
-5.22559e-17
6.25e-06
-2.96556e-17
6.25e-06
-1.62208e-17
6.25e-06
-8.41058e-18
6.25e-06
-4.00334e-18
6.25e-06
-1.54858e-18
6.25e-06
-8.62819e-20
6.25e-06
1.12532e-18
6.25e-06
2.94417e-18
6.25e-06
6.82605e-18
6.25e-06
1.57736e-17
6.25e-06
3.50307e-17
6.25e-06
7.24589e-17
6.25e-06
1.53485e-16
1.53601e-16
8.75e-06
-4.70767e-16
8.75e-06
-4.90324e-16
8.75e-06
-3.33751e-16
8.75e-06
-2.14157e-16
8.75e-06
-1.32911e-16
8.75e-06
-7.89967e-17
8.75e-06
-4.5446e-17
8.75e-06
-2.51544e-17
8.75e-06
-1.32025e-17
8.75e-06
-6.37387e-18
8.75e-06
-2.55776e-18
8.75e-06
-3.26832e-19
8.75e-06
1.41237e-18
8.75e-06
3.87978e-18
8.75e-06
9.02946e-18
8.75e-06
2.05797e-17
8.75e-06
4.4825e-17
8.75e-06
8.96357e-17
8.75e-06
1.75298e-16
1.70015e-16
1.125e-05
-5.24809e-16
1.125e-05
-5.58816e-16
1.125e-05
-3.99279e-16
1.125e-05
-2.63861e-16
1.125e-05
-1.67236e-16
1.125e-05
-1.01064e-16
1.125e-05
-5.88274e-17
1.125e-05
-3.28514e-17
1.125e-05
-1.73771e-17
1.125e-05
-8.4675e-18
1.125e-05
-3.50428e-18
1.125e-05
-7.04914e-19
1.125e-05
1.28834e-18
1.125e-05
3.90261e-18
1.125e-05
9.28552e-18
1.125e-05
2.12741e-17
1.125e-05
4.61279e-17
1.125e-05
9.02421e-17
1.125e-05
1.68284e-16
1.5951e-16
1.375e-05
-5.34186e-16
1.375e-05
-5.76162e-16
1.375e-05
-4.26545e-16
1.375e-05
-2.88712e-16
1.375e-05
-1.86298e-16
1.375e-05
-1.14178e-16
1.375e-05
-6.70936e-17
1.375e-05
-3.76928e-17
1.375e-05
-2.00107e-17
1.375e-05
-9.79601e-18
1.375e-05
-4.16074e-18
1.375e-05
-1.15373e-18
1.375e-05
6.74577e-19
1.375e-05
2.76357e-18
1.375e-05
7.10258e-18
1.375e-05
1.70458e-17
1.375e-05
3.79632e-17
1.375e-05
7.39547e-17
1.375e-05
1.35129e-16
1.24937e-16
1.625e-05
-5.00675e-16
1.625e-05
-5.4341e-16
1.625e-05
-4.1315e-16
1.625e-05
-2.85021e-16
1.625e-05
-1.86725e-16
1.625e-05
-1.15783e-16
1.625e-05
-6.85317e-17
1.625e-05
-3.86011e-17
1.625e-05
-2.04605e-17
1.625e-05
-9.98605e-18
1.625e-05
-4.33601e-18
1.625e-05
-1.59053e-18
1.625e-05
-3.8521e-19
1.625e-05
4.81557e-19
1.625e-05
2.54444e-18
1.625e-05
8.17953e-18
1.625e-05
2.12606e-17
1.625e-05
4.33969e-17
1.625e-05
8.11884e-17
7.11315e-17
1.875e-05
-4.29693e-16
1.875e-05
-4.66332e-16
1.875e-05
-3.61799e-16
1.875e-05
-2.53383e-16
1.875e-05
-1.68173e-16
1.875e-05
-1.05296e-16
1.875e-05
-6.26087e-17
1.875e-05
-3.52014e-17
1.875e-05
-1.84845e-17
1.875e-05
-8.89077e-18
1.875e-05
-3.92314e-18
1.875e-05
-1.91318e-18
1.875e-05
-1.76377e-18
1.875e-05
-2.68588e-18
1.875e-05
-3.85273e-18
1.875e-05
-4.19527e-18
1.875e-05
-1.68882e-18
1.875e-05
2.87576e-18
1.875e-05
1.33855e-17
4.35017e-18
2.125e-05
-3.2912e-16
2.125e-05
-3.53965e-16
2.125e-05
-2.79187e-16
2.125e-05
-1.98001e-16
2.125e-05
-1.33073e-16
2.125e-05
-8.40438e-17
2.125e-05
-5.00474e-17
2.125e-05
-2.78807e-17
2.125e-05
-1.42767e-17
2.125e-05
-6.59981e-18
2.125e-05
-2.93039e-18
2.125e-05
-2.04457e-18
2.125e-05
-3.26099e-18
2.125e-05
-6.3103e-18
2.125e-05
-1.12296e-17
2.125e-05
-1.84004e-17
2.125e-05
-2.78348e-17
2.125e-05
-4.24482e-17
2.125e-05
-6.08315e-17
-6.86399e-17
2.375e-05
-2.08756e-16
2.375e-05
-2.17749e-16
2.375e-05
-1.74966e-16
2.375e-05
-1.25934e-16
2.375e-05
-8.61423e-17
2.375e-05
-5.50163e-17
2.375e-05
-3.26528e-17
2.375e-05
-1.76909e-17
2.375e-05
-8.46015e-18
2.375e-05
-3.43804e-18
2.375e-05
-1.48609e-18
2.375e-05
-1.9608e-18
2.375e-05
-4.65536e-18
2.375e-05
-9.87468e-18
2.375e-05
-1.85549e-17
2.375e-05
-3.25329e-17
2.375e-05
-5.38397e-17
2.375e-05
-8.72567e-17
2.375e-05
-1.3406e-16
-1.40977e-16
2.625e-05
-7.96104e-17
2.625e-05
-7.07577e-17
2.625e-05
-6.08214e-17
2.625e-05
-4.62028e-17
2.625e-05
-3.37334e-17
2.625e-05
-2.23629e-17
2.625e-05
-1.30255e-17
2.625e-05
-6.2163e-18
2.625e-05
-1.93569e-18
2.625e-05
9.33488e-20
2.625e-05
1.61349e-19
2.625e-05
-1.6793e-18
2.625e-05
-5.74307e-18
2.625e-05
-1.28818e-17
2.625e-05
-2.48227e-17
2.625e-05
-4.47253e-17
2.625e-05
-7.65111e-17
2.625e-05
-1.26564e-16
2.625e-05
-1.99411e-16
-2.06164e-16
2.875e-05
4.66857e-17
2.875e-05
7.30722e-17
2.875e-05
5.04845e-17
2.875e-05
3.11744e-17
2.875e-05
1.70014e-17
2.875e-05
9.16898e-18
2.875e-05
5.86122e-18
2.875e-05
4.74975e-18
2.875e-05
4.22963e-18
2.875e-05
3.39762e-18
2.875e-05
1.74059e-18
2.875e-05
-1.26723e-18
2.875e-05
-6.39359e-18
2.875e-05
-1.49089e-17
2.875e-05
-2.91696e-17
2.875e-05
-5.33856e-17
2.875e-05
-9.31074e-17
2.875e-05
-1.56082e-16
2.875e-05
-2.50853e-16
-2.58375e-16
3.125e-05
1.58473e-16
3.125e-05
1.99596e-16
3.125e-05
1.46116e-16
3.125e-05
9.62431e-17
3.125e-05
5.90809e-17
3.125e-05
3.50139e-17
3.125e-05
2.1147e-17
3.125e-05
1.34903e-17
3.125e-05
9.0395e-18
3.125e-05
5.93479e-18
3.125e-05
2.9634e-18
3.125e-05
-8.39361e-19
3.125e-05
-6.50965e-18
3.125e-05
-1.56319e-17
3.125e-05
-3.09829e-17
3.125e-05
-5.73886e-17
3.125e-05
-1.01637e-16
3.125e-05
-1.72549e-16
3.125e-05
-2.83468e-16
-2.92767e-16
3.375e-05
2.44877e-16
3.375e-05
2.95383e-16
3.375e-05
2.14315e-16
3.375e-05
1.40405e-16
3.375e-05
8.67268e-17
3.375e-05
5.15237e-17
3.375e-05
3.06376e-17
3.375e-05
1.87298e-17
3.375e-05
1.17877e-17
3.375e-05
7.2894e-18
3.375e-05
3.6107e-18
3.375e-05
-4.5354e-19
3.375e-05
-6.09329e-18
3.375e-05
-1.50023e-17
3.375e-05
-3.00018e-17
3.375e-05
-5.61918e-17
3.375e-05
-1.0101e-16
3.375e-05
-1.73983e-16
3.375e-05
-2.93717e-16
-3.05737e-16
3.625e-05
2.9629e-16
3.625e-05
3.48682e-16
3.625e-05
2.45908e-16
3.625e-05
1.57764e-16
3.625e-05
9.64456e-17
3.625e-05
5.67313e-17
3.625e-05
3.32758e-17
3.625e-05
1.98929e-17
3.625e-05
1.21706e-17
3.625e-05
7.31801e-18
3.625e-05
3.62171e-18
3.625e-05
-1.68759e-19
3.625e-05
-5.21207e-18
3.625e-05
-1.30832e-17
3.625e-05
-2.64115e-17
3.625e-05
-4.99656e-17
3.625e-05
-9.12664e-17
3.625e-05
-1.59908e-16
3.625e-05
-2.79762e-16
-2.95193e-16
3.875e-05
3.05954e-16
3.875e-05
3.51191e-16
3.875e-05
2.36162e-16
3.875e-05
1.46712e-16
3.875e-05
8.80143e-17
3.875e-05
5.09327e-17
3.875e-05
2.94288e-17
3.875e-05
1.73173e-17
3.875e-05
1.04137e-17
3.875e-05
6.17035e-18
3.875e-05
3.04217e-18
3.875e-05
-1.56837e-20
3.875e-05
-3.99563e-18
3.875e-05
-1.018e-17
3.875e-05
-2.07143e-17
3.875e-05
-3.96194e-17
3.875e-05
-7.3721e-17
3.875e-05
-1.31764e-16
3.875e-05
-2.41948e-16
-2.60934e-16
4.125e-05
2.70388e-16
4.125e-05
2.99956e-16
4.125e-05
1.87406e-16
4.125e-05
1.11341e-16
4.125e-05
6.52249e-17
4.125e-05
3.68969e-17
4.125e-05
2.09548e-17
4.125e-05
1.21761e-17
4.125e-05
7.24634e-18
4.125e-05
4.25754e-18
4.125e-05
2.10464e-18
4.125e-05
3.57278e-20
4.125e-05
-2.62528e-18
4.125e-05
-6.771e-18
4.125e-05
-1.38771e-17
4.125e-05
-2.68381e-17
4.125e-05
-5.10418e-17
4.125e-05
-9.322e-17
4.125e-05
-1.83371e-16
-2.05137e-16
4.375e-05
1.93495e-16
4.375e-05
2.02495e-16
4.375e-05
1.11894e-16
4.375e-05
6.28129e-17
4.375e-05
3.58253e-17
4.375e-05
1.96826e-17
4.375e-05
1.09551e-17
4.375e-05
6.29076e-18
4.375e-05
3.7298e-18
4.375e-05
2.20199e-18
4.375e-05
1.09582e-18
4.375e-05
4.12669e-20
4.375e-05
-1.32711e-18
4.375e-05
-3.47689e-18
4.375e-05
-7.17069e-18
4.375e-05
-1.40169e-17
4.375e-05
-2.74173e-17
4.375e-05
-5.08914e-17
4.375e-05
-1.11564e-16
-1.33509e-16
4.625e-05
8.55049e-17
4.625e-05
8.19808e-17
4.625e-05
3.65729e-17
4.625e-05
1.88231e-17
4.625e-05
1.05407e-17
4.625e-05
5.52464e-18
4.625e-05
2.99408e-18
4.625e-05
1.70613e-18
4.625e-05
1.01374e-18
4.625e-05
6.02021e-19
4.625e-05
3.20293e-19
4.625e-05
3.45944e-20
4.625e-05
-3.66668e-19
4.625e-05
-1.00048e-18
4.625e-05
-2.06309e-18
4.625e-05
-4.07752e-18
4.625e-05
-8.30852e-18
4.625e-05
-1.53637e-17
4.625e-05
-4.08006e-17
-5.52546e-17
4.875e-05
4.875e-05
4.875e-05
4.875e-05
4.875e-05
4.875e-05
4.875e-05
4.875e-05
4.875e-05
4.875e-05
4.875e-05
4.875e-05
4.875e-05
4.875e-05
4.875e-05
4.875e-05
4.875e-05
4.875e-05
4.875e-05
)
;

boundaryField
{
    top
    {
        type            calculated;
        value           uniform 0;
    }
    bottom
    {
        type            calculated;
        value           uniform 0;
    }
    inlet
    {
        type            calculated;
        value           nonuniform List<scalar> 
20
(
-1.25e-06
-3.75e-06
-6.25e-06
-8.75e-06
-1.125e-05
-1.375e-05
-1.625e-05
-1.875e-05
-2.125e-05
-2.375e-05
-2.625e-05
-2.875e-05
-3.125e-05
-3.375e-05
-3.625e-05
-3.875e-05
-4.125e-05
-4.375e-05
-4.625e-05
-4.875e-05
)
;
    }
    outlet
    {
        type            calculated;
        value           nonuniform List<scalar> 
20
(
1.25e-06
3.75e-06
6.25e-06
8.75e-06
1.125e-05
1.375e-05
1.625e-05
1.875e-05
2.125e-05
2.375e-05
2.625e-05
2.875e-05
3.125e-05
3.375e-05
3.625e-05
3.875e-05
4.125e-05
4.375e-05
4.625e-05
4.875e-05
)
;
    }
    frontAndBack
    {
        type            empty;
        value           nonuniform List<scalar> 0();
    }
}


// ************************************************************************* //
