/*--------------------------------*- C++ -*----------------------------------*\
  =========                 |
  \\      /  F ield         | OpenFOAM: The Open Source CFD Toolbox
   \\    /   O peration     | Website:  https://openfoam.org
    \\  /    A nd           | Version:  9
     \\/     M anipulation  |
\*---------------------------------------------------------------------------*/
FoamFile
{
    format      ascii;
    class       volVectorField;
    location    "4.5";
    object      U;
}
// * * * * * * * * * * * * * * * * * * * * * * * * * * * * * * * * * * * * * //

dimensions      [0 1 -1 0 0 0 0];

internalField   nonuniform List<vector> 
400
(
(0.025 -5.01251e-13 0)
(0.025 -4.01459e-13 0)
(0.025 -1.69307e-13 0)
(0.025 -9.03025e-14 0)
(0.025 -4.98205e-14 0)
(0.025 -2.64046e-14 0)
(0.025 -1.42248e-14 0)
(0.025 -7.11727e-15 0)
(0.025 -3.20835e-15 0)
(0.025 -1.36875e-15 0)
(0.025 -4.94458e-16 0)
(0.025 7.45405e-17 0)
(0.025 6.59047e-16 0)
(0.025 1.65834e-15 0)
(0.025 3.96889e-15 0)
(0.025 1.05457e-14 0)
(0.025 2.63239e-14 0)
(0.025 6.27147e-14 0)
(0.025 2.20117e-13 0)
(0.025 2.57853e-13 0)
(0.075 -1.72483e-12 0)
(0.075 -1.53394e-12 0)
(0.075 -8.01367e-13 0)
(0.075 -4.60049e-13 0)
(0.075 -2.65686e-13 0)
(0.075 -1.47701e-13 0)
(0.075 -8.11869e-14 0)
(0.075 -4.29393e-14 0)
(0.075 -2.12911e-14 0)
(0.075 -9.66007e-15 0)
(0.075 -3.44455e-15 0)
(0.075 3.28492e-16 0)
(0.075 3.70934e-15 0)
(0.075 9.22961e-15 0)
(0.075 2.16477e-14 0)
(0.075 5.29859e-14 0)
(0.075 1.24615e-13 0)
(0.075 2.77262e-13 0)
(0.075 7.52356e-13 0)
(0.075 8.25682e-13 0)
(0.125 -3.13592e-12 0)
(0.125 -3.04544e-12 0)
(0.125 -1.83949e-12 0)
(0.125 -1.11301e-12 0)
(0.125 -6.63901e-13 0)
(0.125 -3.81748e-13 0)
(0.125 -2.14664e-13 0)
(0.125 -1.16333e-13 0)
(0.125 -5.96838e-14 0)
(0.125 -2.81016e-14 0)
(0.125 -1.0638e-14 0)
(0.125 -9.69423e-17 0)
(0.125 8.95194e-15 0)
(0.125 2.29501e-14 0)
(0.125 5.32224e-14 0)
(0.125 1.2442e-13 0)
(0.125 2.80353e-13 0)
(0.125 5.9152e-13 0)
(0.125 1.33077e-12 0)
(0.125 1.36868e-12 0)
(0.175 -4.31481e-12 0)
(0.175 -4.41291e-12 0)
(0.175 -2.90986e-12 0)
(0.175 -1.8329e-12 0)
(0.175 -1.12284e-12 0)
(0.175 -6.60213e-13 0)
(0.175 -3.76903e-13 0)
(0.175 -2.07335e-13 0)
(0.175 -1.08204e-13 0)
(0.175 -5.18865e-14 0)
(0.175 -2.04019e-14 0)
(0.175 -1.71381e-15 0)
(0.175 1.34762e-14 0)
(0.175 3.58041e-14 0)
(0.175 8.28654e-14 0)
(0.175 1.89485e-13 0)
(0.175 4.15617e-13 0)
(0.175 8.43648e-13 0)
(0.175 1.7038e-12 0)
(0.175 1.68105e-12 0)
(0.225 -5.08804e-12 0)
(0.225 -5.36177e-12 0)
(0.225 -3.74902e-12 0)
(0.225 -2.44215e-12 0)
(0.225 -1.53133e-12 0)
(0.225 -9.17597e-13 0)
(0.225 -5.30919e-13 0)
(0.225 -2.95259e-13 0)
(0.225 -1.55705e-13 0)
(0.225 -7.56007e-14 0)
(0.225 -3.07998e-14 0)
(0.225 -4.91266e-15 0)
(0.225 1.46417e-14 0)
(0.225 4.15667e-14 0)
(0.225 9.7167e-14 0)
(0.225 2.20688e-13 0)
(0.225 4.77201e-13 0)
(0.225 9.40532e-13 0)
(0.225 1.78297e-12 0)
(0.225 1.71222e-12 0)
(0.275 -5.40566e-12 0)
(0.275 -5.79698e-12 0)
(0.275 -4.22737e-12 0)
(0.275 -2.83016e-12 0)
(0.275 -1.81063e-12 0)
(0.275 -1.1023e-12 0)
(0.275 -6.44912e-13 0)
(0.275 -3.61463e-13 0)
(0.275 -1.91778e-13 0)
(0.275 -9.38226e-14 0)
(0.275 -3.93716e-14 0)
(0.275 -9.26235e-15 0)
(0.275 1.09857e-14 0)
(0.275 3.6233e-14 0)
(0.275 8.79987e-14 0)
(0.275 2.03541e-13 0)
(0.275 4.42732e-13 0)
(0.275 8.59161e-13 0)
(0.275 1.57296e-12 0)
(0.275 1.4768e-12 0)
(0.325 -5.27558e-12 0)
(0.325 -5.71188e-12 0)
(0.325 -4.29613e-12 0)
(0.325 -2.93979e-12 0)
(0.325 -1.91281e-12 0)
(0.325 -1.17997e-12 0)
(0.325 -6.96376e-13 0)
(0.325 -3.92137e-13 0)
(0.325 -2.08365e-13 0)
(0.325 -1.021e-13 0)
(0.325 -4.39325e-14 0)
(0.325 -1.39557e-14 0)
(0.325 2.35697e-15 0)
(0.325 1.87242e-14 0)
(0.325 5.34466e-14 0)
(0.325 1.36152e-13 0)
(0.325 3.14151e-13 0)
(0.325 6.16103e-13 0)
(0.325 1.12286e-12 0)
(0.325 1.0208e-12 0)
(0.375 -4.73635e-12 0)
(0.375 -5.14515e-12 0)
(0.375 -3.96088e-12 0)
(0.375 -2.75728e-12 0)
(0.375 -1.81972e-12 0)
(0.375 -1.13474e-12 0)
(0.375 -6.73812e-13 0)
(0.375 -3.79741e-13 0)
(0.375 -2.00833e-13 0)
(0.375 -9.76833e-14 0)
(0.375 -4.28832e-14 0)
(0.375 -1.79873e-14 0)
(0.375 -1.0283e-14 0)
(0.375 -9.43438e-15 0)
(0.375 -3.15566e-15 0)
(0.375 2.63579e-14 0)
(0.375 1.09147e-13 0)
(0.375 2.48991e-13 0)
(0.375 4.97055e-13 0)
(0.375 4.01526e-13 0)
(0.425 -3.85629e-12 0)
(0.425 -4.17329e-12 0)
(0.425 -3.27097e-12 0)
(0.425 -2.30825e-12 0)
(0.425 -1.54258e-12 0)
(0.425 -9.70694e-13 0)
(0.425 -5.78263e-13 0)
(0.425 -3.2434e-13 0)
(0.425 -1.6891e-13 0)
(0.425 -8.02291e-14 0)
(0.425 -3.5677e-14 0)
(0.425 -2.03945e-14 0)
(0.425 -2.52021e-14 0)
(0.425 -4.45895e-14 0)
(0.425 -7.4411e-14 0)
(0.425 -1.11039e-13 0)
(0.425 -1.44264e-13 0)
(0.425 -1.931e-13 0)
(0.425 -2.30775e-13 0)
(0.425 -3.14415e-13 0)
(0.475 -2.72526e-12 0)
(0.475 -2.90066e-12 0)
(0.475 -2.31047e-12 0)
(0.475 -1.65097e-12 0)
(0.475 -1.11853e-12 0)
(0.475 -7.10278e-13 0)
(0.475 -4.22886e-13 0)
(0.475 -2.33438e-13 0)
(0.475 -1.16834e-13 0)
(0.475 -5.18999e-14 0)
(0.475 -2.30143e-14 0)
(0.475 -2.06254e-14 0)
(0.475 -4.01744e-14 0)
(0.475 -8.18095e-14 0)
(0.475 -1.50458e-13 0)
(0.475 -2.57397e-13 0)
(0.475 -4.13057e-13 0)
(0.475 -6.56376e-13 0)
(0.475 -9.85141e-13 0)
(0.475 -1.05783e-12 0)
(0.525 -1.44906e-12 0)
(0.525 -1.45178e-12 0)
(0.525 -1.18839e-12 0)
(0.525 -8.68121e-13 0)
(0.525 -6.04797e-13 0)
(0.525 -3.90537e-13 0)
(0.525 -2.30633e-13 0)
(0.525 -1.20768e-13 0)
(0.525 -5.25743e-14 0)
(0.525 -1.70093e-14 0)
(0.525 -6.86689e-15 0)
(0.525 -1.86554e-14 0)
(0.525 -5.29861e-14 0)
(0.525 -1.15807e-13 0)
(0.525 -2.20734e-13 0)
(0.525 -3.93258e-13 0)
(0.525 -6.6366e-13 0)
(0.525 -1.08824e-12 0)
(0.525 -1.69354e-12 0)
(0.525 -1.76091e-12 0)
(0.575 -1.42416e-13 0)
(0.575 3.64176e-14 0)
(0.575 -2.94084e-14 0)
(0.575 -5.74633e-14 0)
(0.575 -7.11025e-14 0)
(0.575 -5.76633e-14 0)
(0.575 -3.05156e-14 0)
(0.575 -3.99106e-15 0)
(0.575 1.35463e-14 0)
(0.575 1.86803e-14 0)
(0.575 1.00375e-14 0)
(0.575 -1.49504e-14 0)
(0.575 -6.19246e-14 0)
(0.575 -1.41815e-13 0)
(0.575 -2.75569e-13 0)
(0.575 -5.00799e-13 0)
(0.575 -8.65704e-13 0)
(0.575 -1.44149e-12 0)
(0.575 -2.29057e-12 0)
(0.575 -2.36123e-12 0)
(0.625 1.07637e-12 0)
(0.625 1.42141e-12 0)
(0.625 1.03579e-12 0)
(0.625 6.78236e-13 0)
(0.625 4.09356e-13 0)
(0.625 2.39896e-13 0)
(0.625 1.46956e-13 0)
(0.625 9.84909e-14 0)
(0.625 7.07147e-14 0)
(0.625 4.91607e-14 0)
(0.625 2.47129e-14 0)
(0.625 -1.04889e-14 0)
(0.625 -6.58202e-14 0)
(0.625 -1.55995e-13 0)
(0.625 -3.07346e-13 0)
(0.625 -5.66059e-13 0)
(0.625 -9.94947e-13 0)
(0.625 -1.67765e-12 0)
(0.625 -2.72075e-12 0)
(0.625 -2.80474e-12 0)
(0.675 2.09307e-12 0)
(0.675 2.56313e-12 0)
(0.675 1.88103e-12 0)
(0.675 1.24304e-12 0)
(0.675 7.70098e-13 0)
(0.675 4.59127e-13 0)
(0.675 2.75234e-13 0)
(0.675 1.70905e-13 0)
(0.675 1.09906e-13 0)
(0.675 6.93864e-14 0)
(0.675 3.44724e-14 0)
(0.675 -6.19937e-15 0)
(0.675 -6.42044e-14 0)
(0.675 -1.56424e-13 0)
(0.675 -3.11568e-13 0)
(0.675 -5.80426e-13 0)
(0.675 -1.03555e-12 0)
(0.675 -1.76994e-12 0)
(0.675 -2.9412e-12 0)
(0.675 -3.04859e-12 0)
(0.725 2.80299e-12 0)
(0.725 3.33263e-12 0)
(0.725 2.39799e-12 0)
(0.725 1.56088e-12 0)
(0.725 9.62214e-13 0)
(0.725 5.70235e-13 0)
(0.725 3.3703e-13 0)
(0.725 2.03392e-13 0)
(0.725 1.25736e-13 0)
(0.725 7.63624e-14 0)
(0.725 3.78131e-14 0)
(0.725 -2.73334e-15 0)
(0.725 -5.74524e-14 0)
(0.725 -1.43149e-13 0)
(0.725 -2.87796e-13 0)
(0.725 -5.41892e-13 0)
(0.725 -9.81918e-13 0)
(0.725 -1.70544e-12 0)
(0.725 -2.92423e-12 0)
(0.725 -3.06366e-12 0)
(0.775 3.12177e-12 0)
(0.775 3.62454e-12 0)
(0.775 2.51085e-12 0)
(0.775 1.59015e-12 0)
(0.775 9.64657e-13 0)
(0.775 5.63659e-13 0)
(0.775 3.28266e-13 0)
(0.775 1.94497e-13 0)
(0.775 1.17695e-13 0)
(0.775 7.00633e-14 0)
(0.775 3.46181e-14 0)
(0.775 -5.61156e-16 0)
(0.775 -4.65558e-14 0)
(0.775 -1.18035e-13 0)
(0.775 -2.39455e-13 0)
(0.775 -4.55737e-13 0)
(0.775 -8.40368e-13 0)
(0.775 -1.4877e-12 0)
(0.775 -2.66054e-12 0)
(0.775 -2.83738e-12 0)
(0.825 2.98538e-12 0)
(0.825 3.36713e-12 0)
(0.825 2.19653e-12 0)
(0.825 1.33723e-12 0)
(0.825 7.92986e-13 0)
(0.825 4.53948e-13 0)
(0.825 2.59984e-13 0)
(0.825 1.51829e-13 0)
(0.825 9.064e-14 0)
(0.825 5.33734e-14 0)
(0.825 2.63519e-14 0)
(0.825 3.72085e-16 0)
(0.825 -3.30628e-14 0)
(0.825 -8.49897e-14 0)
(0.825 -1.73793e-13 0)
(0.825 -3.3461e-13 0)
(0.825 -6.29804e-13 0)
(0.825 -1.13928e-12 0)
(0.825 -2.16089e-12 0)
(0.825 -2.37381e-12 0)
(0.875 2.3843e-12 0)
(0.875 2.57201e-12 0)
(0.875 1.52233e-12 0)
(0.875 8.78439e-13 0)
(0.875 5.06778e-13 0)
(0.875 2.82382e-13 0)
(0.875 1.58605e-13 0)
(0.875 9.14694e-14 0)
(0.875 5.41945e-14 0)
(0.875 3.17991e-14 0)
(0.875 1.57397e-14 0)
(0.875 4.51575e-16 0)
(0.875 -1.9216e-14 0)
(0.875 -4.99556e-14 0)
(0.875 -1.02678e-13 0)
(0.875 -1.99749e-13 0)
(0.875 -3.8554e-13 0)
(0.875 -7.12101e-13 0)
(0.875 -1.47565e-12 0)
(0.875 -1.70581e-12 0)
(0.925 1.41593e-12 0)
(0.925 1.426e-12 0)
(0.925 7.16635e-13 0)
(0.925 3.80475e-13 0)
(0.925 2.12399e-13 0)
(0.925 1.13515e-13 0)
(0.925 6.20161e-14 0)
(0.925 3.53237e-14 0)
(0.925 2.09175e-14 0)
(0.925 1.2399e-14 0)
(0.925 6.31791e-15 0)
(0.925 3.9775e-16 0)
(0.925 -7.50395e-15 0)
(0.925 -1.9999e-14 0)
(0.925 -4.14325e-14 0)
(0.925 -8.17608e-14 0)
(0.925 -1.63626e-13 0)
(0.925 -3.06878e-13 0)
(0.925 -7.37622e-13 0)
(0.925 -9.30334e-13 0)
(0.975 4.37653e-13 0)
(0.975 4.09422e-13 0)
(0.975 1.64013e-13 0)
(0.975 7.6397e-14 0)
(0.975 4.09766e-14 0)
(0.975 2.0392e-14 0)
(0.975 1.06785e-14 0)
(0.975 6.0185e-15 0)
(0.975 3.56952e-15 0)
(0.975 2.10991e-15 0)
(0.975 1.11481e-15 0)
(0.975 5.80374e-17 0)
(0.975 -1.54218e-15 0)
(0.975 -4.13018e-15 0)
(0.975 -8.28719e-15 0)
(0.975 -1.63142e-14 0)
(0.975 -3.43306e-14 0)
(0.975 -6.45092e-14 0)
(0.975 -1.92386e-13 0)
(0.975 -2.68565e-13 0)
)
;

boundaryField
{
    top
    {
        type            fixedValue;
        value           uniform (1 0 0);
    }
    bottom
    {
        type            fixedValue;
        value           uniform (0 0 0);
    }
    inlet
    {
        type            zeroGradient;
    }
    outlet
    {
        type            zeroGradient;
    }
    frontAndBack
    {
        type            empty;
    }
}


// ************************************************************************* //
