/*--------------------------------*- C++ -*----------------------------------*\
  =========                 |
  \\      /  F ield         | OpenFOAM: The Open Source CFD Toolbox
   \\    /   O peration     | Website:  https://openfoam.org
    \\  /    A nd           | Version:  9
     \\/     M anipulation  |
\*---------------------------------------------------------------------------*/
FoamFile
{
    format      ascii;
    class       volScalarField;
    location    "3.6";
    object      p;
}
// * * * * * * * * * * * * * * * * * * * * * * * * * * * * * * * * * * * * * //

dimensions      [0 2 -2 0 0 0 0];

internalField   nonuniform List<scalar> 
400
(
2.58141e-10
4.27813e-10
4.13675e-10
3.93486e-10
3.60332e-10
3.21065e-10
2.80159e-10
2.38541e-10
1.96903e-10
1.55596e-10
1.14434e-10
7.31521e-11
3.16556e-11
-1.0037e-11
-5.18819e-11
-9.39585e-11
-1.35184e-10
-1.72589e-10
-2.19848e-10
-1.38895e-10
2.44823e-10
4.076e-10
3.92221e-10
3.80637e-10
3.52542e-10
3.1637e-10
2.77443e-10
2.37022e-10
1.96088e-10
1.55188e-10
1.14261e-10
7.31293e-11
3.17715e-11
-9.71192e-12
-5.11226e-11
-9.23195e-11
-1.31706e-10
-1.64598e-10
-2.14625e-10
-1.3534e-10
2.47529e-10
4.09375e-10
3.80211e-10
3.7235e-10
3.46971e-10
3.12688e-10
2.75172e-10
2.35677e-10
1.95311e-10
1.54748e-10
1.14026e-10
7.30384e-11
3.18121e-11
-9.49756e-12
-5.05969e-11
-9.12913e-11
-1.29926e-10
-1.60706e-10
-2.2153e-10
-1.40317e-10
2.57032e-10
4.27216e-10
3.7768e-10
3.68852e-10
3.43961e-10
3.103e-10
2.73527e-10
2.34599e-10
1.94612e-10
1.54291e-10
1.13733e-10
7.28696e-11
3.17509e-11
-9.44847e-12
-5.04103e-11
-9.10325e-11
-1.29935e-10
-1.60984e-10
-2.35506e-10
-1.48023e-10
2.67441e-10
4.51937e-10
3.80055e-10
3.68056e-10
3.42489e-10
3.08721e-10
2.72272e-10
2.33675e-10
1.93941e-10
1.53806e-10
1.13389e-10
7.26364e-11
3.16003e-11
-9.54288e-12
-5.04945e-11
-9.13047e-11
-1.31017e-10
-1.63274e-10
-2.51141e-10
-1.55346e-10
2.77052e-10
4.78649e-10
3.84863e-10
3.68723e-10
3.41937e-10
3.07627e-10
2.71237e-10
2.32827e-10
1.93276e-10
1.53295e-10
1.13006e-10
7.2352e-11
3.13777e-11
-9.74805e-12
-5.07641e-11
-9.18875e-11
-1.3261e-10
-1.66268e-10
-2.65481e-10
-1.61304e-10
2.85531e-10
5.04648e-10
3.90691e-10
3.70096e-10
3.41877e-10
3.06804e-10
2.70312e-10
2.32009e-10
1.92606e-10
1.52765e-10
1.12596e-10
7.20314e-11
3.11041e-11
-1.00248e-11
-5.11355e-11
-9.25875e-11
-1.34308e-10
-1.69174e-10
-2.77025e-10
-1.65725e-10
2.9254e-10
5.27717e-10
3.96397e-10
3.71514e-10
3.41923e-10
3.06054e-10
2.69405e-10
2.31182e-10
1.91922e-10
1.52222e-10
1.12171e-10
7.16925e-11
3.08074e-11
-1.03248e-11
-5.15146e-11
-9.32185e-11
-1.35742e-10
-1.71397e-10
-2.84727e-10
-1.68444e-10
2.9787e-10
5.46132e-10
4.01057e-10
3.72463e-10
3.41773e-10
3.0523e-10
2.68449e-10
2.30324e-10
1.91223e-10
1.51673e-10
1.11746e-10
7.13559e-11
3.05194e-11
-1.05957e-11
-5.18103e-11
-9.36152e-11
-1.36617e-10
-1.72504e-10
-2.87998e-10
-1.69416e-10
3.01361e-10
5.5863e-10
4.04037e-10
3.72614e-10
3.41246e-10
3.04259e-10
2.67427e-10
2.29439e-10
1.9052e-10
1.51133e-10
1.11336e-10
7.10422e-11
3.02701e-11
-1.07904e-11
-5.19463e-11
-9.36555e-11
-1.36729e-10
-1.72242e-10
-2.86616e-10
-1.68652e-10
3.029e-10
5.6439e-10
4.04981e-10
3.71839e-10
3.40295e-10
3.03151e-10
2.66371e-10
2.28558e-10
1.89838e-10
1.50621e-10
1.10959e-10
7.07696e-11
3.00836e-11
-1.08755e-11
-5.18744e-11
-9.32734e-11
-1.35981e-10
-1.70532e-10
-2.80691e-10
-1.66227e-10
3.02385e-10
5.63014e-10
4.03814e-10
3.70201e-10
3.38995e-10
3.01988e-10
2.65351e-10
2.27736e-10
1.89216e-10
1.50164e-10
1.1063e-10
7.05515e-11
2.99731e-11
-1.08367e-11
-5.1582e-11
-9.24678e-11
-1.34386e-10
-1.67457e-10
-2.70606e-10
-1.62253e-10
2.99723e-10
5.54538e-10
4.00748e-10
3.6794e-10
3.3753e-10
3.00908e-10
2.64472e-10
2.27045e-10
1.88698e-10
1.49786e-10
1.10366e-10
7.03941e-11
2.99391e-11
-1.06834e-11
-5.10971e-11
-9.13059e-11
-1.32072e-10
-1.63252e-10
-2.56999e-10
-1.56888e-10
2.94885e-10
5.39522e-10
3.96297e-10
3.65469e-10
3.36172e-10
3.00093e-10
2.63851e-10
2.26558e-10
1.88331e-10
1.49513e-10
1.10176e-10
7.02976e-11
2.99682e-11
-1.04491e-11
-5.04889e-11
-8.9923e-11
-1.29276e-10
-1.58303e-10
-2.40755e-10
-1.50347e-10
2.87883e-10
5.191e-10
3.9131e-10
3.63344e-10
3.35257e-10
2.99733e-10
2.63599e-10
2.2634e-10
1.88147e-10
1.49361e-10
1.10064e-10
7.02533e-11
3.00348e-11
-1.01874e-11
-4.98615e-11
-8.85149e-11
-1.26339e-10
-1.53142e-10
-2.23006e-10
-1.42913e-10
2.78915e-10
4.9511e-10
3.86899e-10
3.62215e-10
3.35128e-10
2.99999e-10
2.63796e-10
2.2643e-10
1.88166e-10
1.49338e-10
1.10028e-10
7.02461e-11
3.01046e-11
-9.96624e-12
-4.9341e-11
-8.73177e-11
-1.23677e-10
-1.48416e-10
-2.05129e-10
-1.34951e-10
2.6813e-10
4.70078e-10
3.84505e-10
3.62735e-10
3.36099e-10
3.01008e-10
2.64481e-10
2.26833e-10
1.88383e-10
1.49434e-10
1.10058e-10
7.02572e-11
3.01393e-11
-9.85908e-12
-4.9064e-11
-8.65886e-11
-1.21767e-10
-1.44906e-10
-1.88746e-10
-1.26858e-10
2.57101e-10
4.48954e-10
3.86564e-10
3.65945e-10
3.38582e-10
3.02915e-10
2.65691e-10
2.27551e-10
1.8879e-10
1.49642e-10
1.10141e-10
7.02649e-11
3.00927e-11
-9.9556e-12
-4.91931e-11
-8.66433e-11
-1.21255e-10
-1.43869e-10
-1.76546e-10
-1.19721e-10
2.50853e-10
4.40993e-10
3.9757e-10
3.73554e-10
3.43292e-10
3.05973e-10
2.67514e-10
2.28611e-10
1.89399e-10
1.49968e-10
1.1028e-10
7.02577e-11
2.99321e-11
-1.03308e-11
-4.98947e-11
-8.78533e-11
-1.22999e-10
-1.47318e-10
-1.73274e-10
-1.16899e-10
2.58613e-10
4.54305e-10
4.17507e-10
3.85238e-10
3.4985e-10
3.09847e-10
2.6972e-10
2.29873e-10
1.90126e-10
1.50368e-10
1.10454e-10
7.02353e-11
2.96824e-11
-1.09229e-11
-5.10602e-11
-9.0042e-11
-1.2688e-10
-1.55134e-10
-1.81798e-10
-1.23402e-10
)
;

boundaryField
{
    top
    {
        type            zeroGradient;
    }
    bottom
    {
        type            zeroGradient;
    }
    inlet
    {
        type            fixedValue;
        value           uniform 0;
    }
    outlet
    {
        type            fixedValue;
        value           uniform 0;
    }
    frontAndBack
    {
        type            empty;
    }
}


// ************************************************************************* //
