/*--------------------------------*- C++ -*----------------------------------*\
  =========                 |
  \\      /  F ield         | OpenFOAM: The Open Source CFD Toolbox
   \\    /   O peration     | Website:  https://openfoam.org
    \\  /    A nd           | Version:  9
     \\/     M anipulation  |
\*---------------------------------------------------------------------------*/
FoamFile
{
    format      ascii;
    class       surfaceScalarField;
    location    "3.6";
    object      phi;
}
// * * * * * * * * * * * * * * * * * * * * * * * * * * * * * * * * * * * * * //

dimensions      [0 3 -1 0 0 0 0];

internalField   nonuniform List<scalar> 
760
(
1.25e-06
-1.58105e-15
1.25e-06
-1.31575e-15
1.25e-06
-6.26716e-16
1.25e-06
-3.56384e-16
1.25e-06
-2.04576e-16
1.25e-06
-1.12431e-16
1.25e-06
-6.16175e-17
1.25e-06
-3.22691e-17
1.25e-06
-1.5755e-17
1.25e-06
-7.17574e-18
1.25e-06
-2.69488e-18
1.25e-06
5.90514e-20
1.25e-06
2.59276e-18
1.25e-06
6.70185e-18
1.25e-06
1.58812e-17
1.25e-06
4.01026e-17
1.25e-06
9.56241e-17
1.25e-06
2.13784e-16
1.25e-06
6.73465e-16
7.77368e-16
3.75e-06
-3.80606e-15
3.75e-06
-3.5666e-15
3.75e-06
-2.03919e-15
3.75e-06
-1.21364e-15
3.75e-06
-7.16208e-16
3.75e-06
-4.07525e-16
3.75e-06
-2.27639e-16
3.75e-06
-1.22567e-16
3.75e-06
-6.23661e-17
3.75e-06
-2.91076e-17
3.75e-06
-1.0855e-17
3.75e-06
1.30876e-19
3.75e-06
9.66976e-18
3.75e-06
2.46424e-17
3.75e-06
5.73627e-17
3.75e-06
1.36257e-16
3.75e-06
3.12301e-16
3.75e-06
6.70562e-16
3.75e-06
1.63431e-15
1.72717e-15
6.25e-06
-5.78886e-15
6.25e-06
-5.80774e-15
6.25e-06
-3.69186e-15
6.25e-06
-2.2862e-15
6.25e-06
-1.38538e-15
6.25e-06
-8.07387e-16
6.25e-06
-4.58213e-16
6.25e-06
-2.50632e-16
6.25e-06
-1.29973e-16
6.25e-06
-6.18464e-17
6.25e-06
-2.38974e-17
6.25e-06
-1.32305e-18
6.25e-06
1.74129e-17
6.25e-06
4.5582e-17
6.25e-06
1.05579e-16
6.25e-06
2.43745e-16
6.25e-06
5.4124e-16
6.25e-06
1.11954e-15
6.25e-06
2.37138e-15
2.37315e-15
8.75e-06
-7.27351e-15
8.75e-06
-7.57566e-15
8.75e-06
-5.15652e-15
8.75e-06
-3.30874e-15
8.75e-06
-2.05344e-15
8.75e-06
-1.22052e-15
8.75e-06
-7.02205e-16
8.75e-06
-3.88668e-16
8.75e-06
-2.04001e-16
8.75e-06
-9.84688e-17
8.75e-06
-3.94498e-17
8.75e-06
-5.04192e-18
8.75e-06
2.18354e-17
8.75e-06
6.00265e-17
8.75e-06
1.39644e-16
8.75e-06
3.18069e-16
8.75e-06
6.9259e-16
8.75e-06
1.38492e-15
8.75e-06
2.70843e-15
2.62676e-15
1.125e-05
-8.10846e-15
1.125e-05
-8.63389e-15
1.125e-05
-6.16897e-15
1.125e-05
-4.07666e-15
1.125e-05
-2.58375e-15
1.125e-05
-1.56149e-15
1.125e-05
-9.08926e-16
1.125e-05
-5.07551e-16
1.125e-05
-2.68448e-16
1.125e-05
-1.30816e-16
1.125e-05
-5.41084e-17
1.125e-05
-1.08779e-17
1.125e-05
1.99486e-17
1.125e-05
6.03935e-17
1.125e-05
1.43619e-16
1.125e-05
3.2883e-16
1.125e-05
7.1279e-16
1.125e-05
1.39431e-15
1.125e-05
2.60004e-15
2.46448e-15
1.375e-05
-8.25335e-15
1.375e-05
-8.90191e-15
1.375e-05
-6.59031e-15
1.375e-05
-4.46064e-15
1.375e-05
-2.87822e-15
1.375e-05
-1.76406e-15
1.375e-05
-1.03664e-15
1.375e-05
-5.82339e-16
1.375e-05
-3.0907e-16
1.375e-05
-1.51248e-16
1.375e-05
-6.42704e-17
1.375e-05
-1.78776e-17
1.375e-05
1.04955e-17
1.375e-05
4.27847e-17
1.375e-05
1.09897e-16
1.375e-05
2.63524e-16
1.375e-05
5.86677e-16
1.375e-05
1.14269e-15
1.375e-05
2.08778e-15
1.93029e-15
1.625e-05
-7.7356e-15
1.625e-05
-8.39591e-15
1.625e-05
-6.3834e-15
1.625e-05
-4.40362e-15
1.625e-05
-2.88485e-15
1.625e-05
-1.78885e-15
1.625e-05
-1.05875e-15
1.625e-05
-5.96337e-16
1.625e-05
-3.15977e-16
1.625e-05
-1.54181e-16
1.625e-05
-6.69629e-17
1.625e-05
-2.4605e-17
1.625e-05
-5.95535e-18
1.625e-05
7.50448e-18
1.625e-05
3.94579e-17
1.625e-05
1.26595e-16
1.625e-05
3.28626e-16
1.625e-05
6.70515e-16
1.625e-05
1.25434e-15
1.09894e-15
1.875e-05
-6.63888e-15
1.875e-05
-7.20502e-15
1.875e-05
-5.59001e-15
1.875e-05
-3.91483e-15
1.875e-05
-2.59823e-15
1.875e-05
-1.6268e-15
1.875e-05
-9.6719e-16
1.875e-05
-5.43753e-16
1.875e-05
-2.85399e-16
1.875e-05
-1.37237e-16
1.875e-05
-6.05579e-17
1.875e-05
-2.957e-17
1.875e-05
-2.72793e-17
1.875e-05
-4.1454e-17
1.875e-05
-5.93901e-17
1.875e-05
-6.45276e-17
1.875e-05
-2.59991e-17
1.875e-05
4.44373e-17
1.875e-05
2.06786e-16
6.71563e-17
2.125e-05
-5.08502e-15
2.125e-05
-5.46888e-15
2.125e-05
-4.31362e-15
2.125e-05
-3.05921e-15
2.125e-05
-2.05592e-15
2.125e-05
-1.29845e-15
2.125e-05
-7.72996e-16
2.125e-05
-4.30475e-16
2.125e-05
-2.20405e-16
2.125e-05
-1.01818e-16
2.125e-05
-4.52338e-17
2.125e-05
-3.1643e-17
2.125e-05
-5.03871e-17
2.125e-05
-9.74648e-17
2.125e-05
-1.73322e-16
2.125e-05
-2.84013e-16
2.125e-05
-4.29985e-16
2.125e-05
-6.5587e-16
2.125e-05
-9.39876e-16
-1.06054e-15
2.375e-05
-3.22535e-15
2.375e-05
-3.36439e-15
2.375e-05
-2.70337e-15
2.375e-05
-1.9457e-15
2.375e-05
-1.3309e-15
2.375e-05
-8.49848e-16
2.375e-05
-5.04103e-16
2.375e-05
-2.72984e-16
2.375e-05
-1.30431e-16
2.375e-05
-5.29432e-17
2.375e-05
-2.30294e-17
2.375e-05
-3.03841e-17
2.375e-05
-7.19136e-17
2.375e-05
-1.5261e-16
2.375e-05
-2.86566e-16
2.375e-05
-5.02397e-16
2.375e-05
-8.31811e-16
2.375e-05
-1.34823e-15
2.375e-05
-2.07131e-15
-2.17818e-15
2.625e-05
-1.23005e-15
2.625e-05
-1.09326e-15
2.625e-05
-9.39708e-16
2.625e-05
-7.13741e-16
2.625e-05
-5.21212e-16
2.625e-05
-3.45347e-16
2.625e-05
-2.00754e-16
2.625e-05
-9.55831e-17
2.625e-05
-2.9637e-17
2.625e-05
1.59427e-18
2.625e-05
2.44929e-18
2.625e-05
-2.61361e-17
2.625e-05
-8.87924e-17
2.625e-05
-1.99058e-16
2.625e-05
-3.83441e-16
2.625e-05
-6.90854e-16
2.625e-05
-1.18209e-15
2.625e-05
-1.95554e-15
2.625e-05
-3.0811e-15
-3.18531e-15
2.875e-05
7.21177e-16
2.875e-05
1.12886e-15
2.875e-05
7.80055e-16
2.875e-05
4.81749e-16
2.875e-05
2.62723e-16
2.875e-05
1.41931e-16
2.875e-05
9.10021e-17
2.875e-05
7.38466e-17
2.875e-05
6.56607e-17
2.875e-05
5.27086e-17
2.875e-05
2.67704e-17
2.875e-05
-1.99078e-17
2.875e-05
-9.87635e-17
2.875e-05
-2.30228e-16
2.875e-05
-4.50578e-16
2.875e-05
-8.24782e-16
2.875e-05
-1.43858e-15
2.875e-05
-2.41166e-15
2.875e-05
-3.87592e-15
-3.99204e-15
3.125e-05
2.44835e-15
3.125e-05
3.08359e-15
3.125e-05
2.25752e-15
3.125e-05
1.48711e-15
3.125e-05
9.12968e-16
3.125e-05
5.41246e-16
3.125e-05
3.27165e-16
3.125e-05
2.08883e-16
3.125e-05
1.401e-16
3.125e-05
9.18368e-17
3.125e-05
4.56339e-17
3.125e-05
-1.30965e-17
3.125e-05
-1.0059e-16
3.125e-05
-2.41707e-16
3.125e-05
-4.78667e-16
3.125e-05
-8.86678e-16
3.125e-05
-1.57028e-15
3.125e-05
-2.66612e-15
3.125e-05
-4.37978e-15
-4.52346e-15
3.375e-05
3.78326e-15
3.375e-05
4.56351e-15
3.375e-05
3.31107e-15
3.375e-05
2.16938e-15
3.375e-05
1.3401e-15
3.375e-05
7.96392e-16
3.375e-05
4.7382e-16
3.375e-05
2.89782e-16
3.375e-05
1.82475e-16
3.375e-05
1.12784e-16
3.375e-05
5.57963e-17
3.375e-05
-7.01577e-18
3.375e-05
-9.41926e-17
3.375e-05
-2.31893e-16
3.375e-05
-4.63771e-16
3.375e-05
-8.6827e-16
3.375e-05
-1.56063e-15
3.375e-05
-2.68809e-15
3.375e-05
-4.53824e-15
-4.72398e-15
3.625e-05
4.57771e-15
3.625e-05
5.38699e-15
3.625e-05
3.79926e-15
3.625e-05
2.43739e-15
3.625e-05
1.49025e-15
3.625e-05
8.76894e-16
3.625e-05
5.14507e-16
3.625e-05
3.07794e-16
3.625e-05
1.88245e-16
3.625e-05
1.13218e-16
3.625e-05
5.59948e-17
3.625e-05
-2.59117e-18
3.625e-05
-8.05708e-17
3.625e-05
-2.02262e-16
3.625e-05
-4.08082e-16
3.625e-05
-7.72087e-16
3.625e-05
-1.41022e-15
3.625e-05
-2.47072e-15
3.625e-05
-4.32266e-15
-4.56096e-15
3.875e-05
4.72698e-15
3.875e-05
5.426e-15
3.875e-05
3.64865e-15
3.875e-05
2.26646e-15
3.875e-05
1.35993e-15
3.875e-05
7.87238e-16
3.875e-05
4.54927e-16
3.875e-05
2.67842e-16
3.875e-05
1.60958e-16
3.875e-05
9.5394e-17
3.875e-05
4.7234e-17
3.875e-05
-9.91826e-20
3.875e-05
-6.17318e-17
3.875e-05
-1.57399e-16
3.875e-05
-3.201e-16
3.875e-05
-6.12247e-16
3.875e-05
-1.13916e-15
3.875e-05
-2.0358e-15
3.875e-05
-3.73828e-15
-4.0317e-15
4.125e-05
4.17751e-15
4.125e-05
4.6345e-15
4.125e-05
2.89527e-15
4.125e-05
1.72e-15
4.125e-05
1.00764e-15
4.125e-05
5.70391e-16
4.125e-05
3.24058e-16
4.125e-05
1.88246e-16
4.125e-05
1.11855e-16
4.125e-05
6.58095e-17
4.125e-05
3.27305e-17
4.125e-05
8.1007e-19
4.125e-05
-4.05013e-17
4.125e-05
-1.04677e-16
4.125e-05
-2.14429e-16
4.125e-05
-4.14723e-16
4.125e-05
-7.88822e-16
4.125e-05
-1.44048e-15
4.125e-05
-2.8332e-15
-3.16956e-15
4.375e-05
2.98948e-15
4.375e-05
3.12862e-15
4.375e-05
1.72876e-15
4.375e-05
9.70402e-16
4.375e-05
5.53452e-16
4.375e-05
3.04257e-16
4.375e-05
1.69413e-16
4.375e-05
9.73354e-17
4.375e-05
5.74792e-17
4.375e-05
3.38479e-17
4.375e-05
1.70609e-17
4.375e-05
8.49348e-19
4.375e-05
-2.04449e-17
4.375e-05
-5.37029e-17
4.375e-05
-1.10748e-16
4.375e-05
-2.16557e-16
4.375e-05
-4.23632e-16
4.375e-05
-7.86528e-16
4.375e-05
-1.72396e-15
-2.06286e-15
4.625e-05
1.32111e-15
4.625e-05
1.2667e-15
4.625e-05
5.65092e-16
4.625e-05
2.90692e-16
4.625e-05
1.62817e-16
4.625e-05
8.53737e-17
4.625e-05
4.62483e-17
4.625e-05
2.63548e-17
4.625e-05
1.55967e-17
4.625e-05
9.35718e-18
4.625e-05
4.97647e-18
4.625e-05
5.89935e-19
4.625e-05
-5.5787e-18
4.625e-05
-1.53428e-17
4.625e-05
-3.18569e-17
4.625e-05
-6.29741e-17
4.625e-05
-1.28396e-16
4.625e-05
-2.37446e-16
4.625e-05
-6.30493e-16
-8.53876e-16
4.875e-05
4.875e-05
4.875e-05
4.875e-05
4.875e-05
4.875e-05
4.875e-05
4.875e-05
4.875e-05
4.875e-05
4.875e-05
4.875e-05
4.875e-05
4.875e-05
4.875e-05
4.875e-05
4.875e-05
4.875e-05
4.875e-05
)
;

boundaryField
{
    top
    {
        type            calculated;
        value           uniform 0;
    }
    bottom
    {
        type            calculated;
        value           uniform 0;
    }
    inlet
    {
        type            calculated;
        value           nonuniform List<scalar> 
20
(
-1.25e-06
-3.75e-06
-6.25e-06
-8.75e-06
-1.125e-05
-1.375e-05
-1.625e-05
-1.875e-05
-2.125e-05
-2.375e-05
-2.625e-05
-2.875e-05
-3.125e-05
-3.375e-05
-3.625e-05
-3.875e-05
-4.125e-05
-4.375e-05
-4.625e-05
-4.875e-05
)
;
    }
    outlet
    {
        type            calculated;
        value           nonuniform List<scalar> 
20
(
1.25e-06
3.75e-06
6.25e-06
8.75e-06
1.125e-05
1.375e-05
1.625e-05
1.875e-05
2.125e-05
2.375e-05
2.625e-05
2.875e-05
3.125e-05
3.375e-05
3.625e-05
3.875e-05
4.125e-05
4.375e-05
4.625e-05
4.875e-05
)
;
    }
    frontAndBack
    {
        type            empty;
        value           nonuniform List<scalar> 0();
    }
}


// ************************************************************************* //
