/*--------------------------------*- C++ -*----------------------------------*\
  =========                 |
  \\      /  F ield         | OpenFOAM: The Open Source CFD Toolbox
   \\    /   O peration     | Website:  https://openfoam.org
    \\  /    A nd           | Version:  9
     \\/     M anipulation  |
\*---------------------------------------------------------------------------*/
FoamFile
{
    format      ascii;
    class       volVectorField;
    location    "3.6";
    object      U;
}
// * * * * * * * * * * * * * * * * * * * * * * * * * * * * * * * * * * * * * //

dimensions      [0 1 -1 0 0 0 0];

internalField   nonuniform List<vector> 
400
(
(0.025 -7.73793e-12 0)
(0.025 -6.19047e-12 0)
(0.025 -2.60357e-12 0)
(0.025 -1.38839e-12 0)
(0.025 -7.66522e-13 0)
(0.025 -4.06606e-13 0)
(0.025 -2.19337e-13 0)
(0.025 -1.09819e-13 0)
(0.025 -4.95261e-14 0)
(0.025 -2.11176e-14 0)
(0.025 -7.61174e-15 0)
(0.025 1.12782e-15 0)
(0.025 1.02226e-14 0)
(0.025 2.57042e-14 0)
(0.025 6.12935e-14 0)
(0.025 1.62595e-13 0)
(0.025 4.05254e-13 0)
(0.025 9.648e-13 0)
(0.025 3.39631e-12 0)
(0.025 3.98132e-12 0)
(0.075 -2.66418e-11 0)
(0.075 -2.36863e-11 0)
(0.075 -1.23675e-11 0)
(0.075 -7.10004e-12 0)
(0.075 -4.1012e-12 0)
(0.075 -2.28053e-12 0)
(0.075 -1.25401e-12 0)
(0.075 -6.63325e-13 0)
(0.075 -3.28973e-13 0)
(0.075 -1.49292e-13 0)
(0.075 -5.3114e-14 0)
(0.075 5.03802e-15 0)
(0.075 5.74914e-14 0)
(0.075 1.42966e-13 0)
(0.075 3.3468e-13 0)
(0.075 8.18388e-13 0)
(0.075 1.92366e-12 0)
(0.075 4.27921e-12 0)
(0.075 1.16192e-11 0)
(0.075 1.27543e-11 0)
(0.125 -4.84509e-11 0)
(0.125 -4.70527e-11 0)
(0.125 -2.84199e-11 0)
(0.125 -1.71957e-11 0)
(0.125 -1.02571e-11 0)
(0.125 -5.89821e-12 0)
(0.125 -3.31691e-12 0)
(0.125 -1.79752e-12 0)
(0.125 -9.22348e-13 0)
(0.125 -4.34237e-13 0)
(0.125 -1.64131e-13 0)
(0.125 -1.43625e-15 0)
(0.125 1.38573e-13 0)
(0.125 3.55354e-13 0)
(0.125 8.23136e-13 0)
(0.125 1.92263e-12 0)
(0.125 4.33144e-12 0)
(0.125 9.13923e-12 0)
(0.125 2.0561e-11 0)
(0.125 2.11466e-11 0)
(0.175 -6.6666e-11 0)
(0.175 -6.81821e-11 0)
(0.175 -4.4959e-11 0)
(0.175 -2.83191e-11 0)
(0.175 -1.7348e-11 0)
(0.175 -1.02007e-11 0)
(0.175 -5.82373e-12 0)
(0.175 -3.20363e-12 0)
(0.175 -1.67207e-12 0)
(0.175 -8.0162e-13 0)
(0.175 -3.1472e-13 0)
(0.175 -2.63747e-14 0)
(0.175 2.08421e-13 0)
(0.175 5.541e-13 0)
(0.175 1.28158e-12 0)
(0.175 2.92838e-12 0)
(0.175 6.42172e-12 0)
(0.175 1.30354e-11 0)
(0.175 2.6325e-11 0)
(0.175 2.59728e-11 0)
(0.225 -7.8612e-11 0)
(0.225 -8.28413e-11 0)
(0.225 -5.79234e-11 0)
(0.225 -3.77313e-11 0)
(0.225 -2.36587e-11 0)
(0.225 -1.41773e-11 0)
(0.225 -8.20328e-12 0)
(0.225 -4.56194e-12 0)
(0.225 -2.40566e-12 0)
(0.225 -1.16799e-12 0)
(0.225 -4.75347e-13 0)
(0.225 -7.57846e-14 0)
(0.225 2.26558e-13 0)
(0.225 6.43142e-13 0)
(0.225 1.50276e-12 0)
(0.225 3.41091e-12 0)
(0.225 7.37361e-12 0)
(0.225 1.4532e-11 0)
(0.225 2.75476e-11 0)
(0.225 2.64542e-11 0)
(0.275 -8.35192e-11 0)
(0.275 -8.95652e-11 0)
(0.275 -6.53143e-11 0)
(0.275 -4.37261e-11 0)
(0.275 -2.79735e-11 0)
(0.275 -1.70309e-11 0)
(0.275 -9.96432e-12 0)
(0.275 -5.58458e-12 0)
(0.275 -2.96237e-12 0)
(0.275 -1.44905e-12 0)
(0.275 -6.08079e-13 0)
(0.275 -1.43291e-13 0)
(0.275 1.70305e-13 0)
(0.275 5.60803e-13 0)
(0.275 1.36122e-12 0)
(0.275 3.1463e-12 0)
(0.275 6.8415e-12 0)
(0.275 1.32748e-11 0)
(0.275 2.43026e-11 0)
(0.275 2.28169e-11 0)
(0.325 -8.15095e-11 0)
(0.325 -8.82507e-11 0)
(0.325 -6.63773e-11 0)
(0.325 -4.54202e-11 0)
(0.325 -2.95522e-11 0)
(0.325 -1.82306e-11 0)
(0.325 -1.0759e-11 0)
(0.325 -6.05822e-12 0)
(0.325 -3.21807e-12 0)
(0.325 -1.57643e-12 0)
(0.325 -6.78554e-13 0)
(0.325 -2.16052e-13 0)
(0.325 3.67934e-14 0)
(0.325 2.90044e-13 0)
(0.325 8.27304e-13 0)
(0.325 2.10549e-12 0)
(0.325 4.85518e-12 0)
(0.325 9.51947e-12 0)
(0.325 1.73483e-11 0)
(0.325 1.57712e-11 0)
(0.375 -7.31781e-11 0)
(0.375 -7.94947e-11 0)
(0.375 -6.11979e-11 0)
(0.375 -4.26006e-11 0)
(0.375 -2.81142e-11 0)
(0.375 -1.75317e-11 0)
(0.375 -1.04096e-11 0)
(0.375 -5.86628e-12 0)
(0.375 -3.10127e-12 0)
(0.375 -1.508e-12 0)
(0.375 -6.62103e-13 0)
(0.375 -2.78114e-13 0)
(0.375 -1.59077e-13 0)
(0.375 -1.45203e-13 0)
(0.375 -4.73085e-14 0)
(0.375 4.09839e-13 0)
(0.375 1.68762e-12 0)
(0.375 3.84714e-12 0)
(0.375 7.67933e-12 0)
(0.375 6.20307e-12 0)
(0.425 -5.95808e-11 0)
(0.425 -6.4479e-11 0)
(0.425 -5.05385e-11 0)
(0.425 -3.56633e-11 0)
(0.425 -2.38324e-11 0)
(0.425 -1.4997e-11 0)
(0.425 -8.93242e-12 0)
(0.425 -5.00919e-12 0)
(0.425 -2.60785e-12 0)
(0.425 -1.23816e-12 0)
(0.425 -5.50683e-13 0)
(0.425 -3.15348e-13 0)
(0.425 -3.89526e-13 0)
(0.425 -6.88609e-13 0)
(0.425 -1.14812e-12 0)
(0.425 -1.71263e-12 0)
(0.425 -2.22804e-12 0)
(0.425 -2.98357e-12 0)
(0.425 -3.56567e-12 0)
(0.425 -4.85826e-12 0)
(0.475 -4.21061e-11 0)
(0.475 -4.48165e-11 0)
(0.475 -3.56984e-11 0)
(0.475 -2.5508e-11 0)
(0.475 -1.72812e-11 0)
(0.475 -1.09729e-11 0)
(0.475 -6.53055e-12 0)
(0.475 -3.60345e-12 0)
(0.475 -1.80287e-12 0)
(0.475 -8.00204e-13 0)
(0.475 -3.55669e-13 0)
(0.475 -3.19342e-13 0)
(0.475 -6.20638e-13 0)
(0.475 -1.26404e-12 0)
(0.475 -2.32318e-12 0)
(0.475 -3.97423e-12 0)
(0.475 -6.38132e-12 0)
(0.475 -1.01418e-11 0)
(0.475 -1.5221e-11 0)
(0.475 -1.63441e-11 0)
(0.525 -2.23886e-11 0)
(0.525 -2.2431e-11 0)
(0.525 -1.83613e-11 0)
(0.525 -1.34121e-11 0)
(0.525 -9.34426e-12 0)
(0.525 -6.03229e-12 0)
(0.525 -3.55877e-12 0)
(0.525 -1.8618e-12 0)
(0.525 -8.09579e-13 0)
(0.525 -2.61152e-13 0)
(0.525 -1.06625e-13 0)
(0.525 -2.8967e-13 0)
(0.525 -8.18938e-13 0)
(0.525 -1.78958e-12 0)
(0.525 -3.40939e-12 0)
(0.525 -6.07385e-12 0)
(0.525 -1.02535e-11 0)
(0.525 -1.68146e-11 0)
(0.525 -2.61666e-11 0)
(0.525 -2.72067e-11 0)
(0.575 -2.20124e-12 0)
(0.575 5.61819e-13 0)
(0.575 -4.54019e-13 0)
(0.575 -8.86773e-13 0)
(0.575 -1.09848e-12 0)
(0.575 -8.8865e-13 0)
(0.575 -4.66713e-13 0)
(0.575 -5.69468e-14 0)
(0.575 2.12343e-13 0)
(0.575 2.9038e-13 0)
(0.575 1.54121e-13 0)
(0.575 -2.33702e-13 0)
(0.575 -9.56977e-13 0)
(0.575 -2.19065e-12 0)
(0.575 -4.25665e-12 0)
(0.575 -7.73647e-12 0)
(0.575 -1.33755e-11 0)
(0.575 -2.22726e-11 0)
(0.575 -3.53916e-11 0)
(0.575 -3.64822e-11 0)
(0.625 1.66289e-11 0)
(0.625 2.19594e-11 0)
(0.625 1.60035e-11 0)
(0.625 1.04802e-11 0)
(0.625 6.3257e-12 0)
(0.625 3.70916e-12 0)
(0.625 2.27505e-12 0)
(0.625 1.52639e-12 0)
(0.625 1.09638e-12 0)
(0.625 7.61364e-13 0)
(0.625 3.80317e-13 0)
(0.625 -1.64454e-13 0)
(0.625 -1.01694e-12 0)
(0.625 -2.41054e-12 0)
(0.625 -4.74796e-12 0)
(0.625 -8.74561e-12 0)
(0.625 -1.53722e-11 0)
(0.625 -2.5922e-11 0)
(0.625 -4.2038e-11 0)
(0.625 -4.33351e-11 0)
(0.675 3.23371e-11 0)
(0.675 3.95985e-11 0)
(0.675 2.90618e-11 0)
(0.675 1.92064e-11 0)
(0.675 1.18999e-11 0)
(0.675 7.09666e-12 0)
(0.675 4.25701e-12 0)
(0.675 2.64491e-12 0)
(0.675 1.70214e-12 0)
(0.675 1.07361e-12 0)
(0.675 5.31832e-13 0)
(0.675 -9.66007e-14 0)
(0.675 -9.92326e-13 0)
(0.675 -2.41821e-12 0)
(0.675 -4.81492e-12 0)
(0.675 -8.96828e-12 0)
(0.675 -1.59993e-11 0)
(0.675 -2.7347e-11 0)
(0.675 -4.54442e-11 0)
(0.675 -4.71035e-11 0)
(0.725 4.33057e-11 0)
(0.725 5.14874e-11 0)
(0.725 3.70483e-11 0)
(0.725 2.4116e-11 0)
(0.725 1.48679e-11 0)
(0.725 8.81397e-12 0)
(0.725 5.21137e-12 0)
(0.725 3.14677e-12 0)
(0.725 1.94557e-12 0)
(0.725 1.18148e-12 0)
(0.725 5.84465e-13 0)
(0.725 -4.22217e-14 0)
(0.725 -8.88067e-13 0)
(0.725 -2.21286e-12 0)
(0.725 -4.44787e-12 0)
(0.725 -8.37347e-12 0)
(0.725 -1.51714e-11 0)
(0.725 -2.635e-11 0)
(0.725 -4.51826e-11 0)
(0.725 -4.73365e-11 0)
(0.775 4.82316e-11 0)
(0.775 5.59992e-11 0)
(0.775 3.87924e-11 0)
(0.775 2.45664e-11 0)
(0.775 1.49054e-11 0)
(0.775 8.71222e-12 0)
(0.775 5.07502e-12 0)
(0.775 3.00866e-12 0)
(0.775 1.81976e-12 0)
(0.775 1.08366e-12 0)
(0.775 5.36382e-13 0)
(0.775 -7.69595e-15 0)
(0.775 -7.1952e-13 0)
(0.775 -1.82501e-12 0)
(0.775 -3.70008e-12 0)
(0.775 -7.04245e-12 0)
(0.775 -1.29854e-11 0)
(0.775 -2.2986e-11 0)
(0.775 -4.11082e-11 0)
(0.775 -4.38401e-11 0)
(0.825 4.61249e-11 0)
(0.825 5.20246e-11 0)
(0.825 3.39366e-11 0)
(0.825 2.06586e-11 0)
(0.825 1.2252e-11 0)
(0.825 7.01703e-12 0)
(0.825 4.01963e-12 0)
(0.825 2.34782e-12 0)
(0.825 1.40014e-12 0)
(0.825 8.2505e-13 0)
(0.825 4.09503e-13 0)
(0.825 7.88573e-15 0)
(0.825 -5.10468e-13 0)
(0.825 -1.31397e-12 0)
(0.825 -2.68561e-12 0)
(0.825 -5.17084e-12 0)
(0.825 -9.73278e-12 0)
(0.825 -1.76039e-11 0)
(0.825 -3.33879e-11 0)
(0.825 -3.66781e-11 0)
(0.875 3.68375e-11 0)
(0.875 3.97388e-11 0)
(0.875 2.35185e-11 0)
(0.875 1.35702e-11 0)
(0.875 7.829e-12 0)
(0.875 4.36533e-12 0)
(0.875 2.45278e-12 0)
(0.875 1.41452e-12 0)
(0.875 8.35891e-13 0)
(0.875 4.90493e-13 0)
(0.875 2.44949e-13 0)
(0.875 9.46488e-15 0)
(0.875 -2.96295e-13 0)
(0.875 -7.72049e-13 0)
(0.875 -1.58627e-12 0)
(0.875 -3.08636e-12 0)
(0.875 -5.95784e-12 0)
(0.875 -1.10043e-11 0)
(0.875 -2.28009e-11 0)
(0.875 -2.63565e-11 0)
(0.925 2.18704e-11 0)
(0.925 2.20222e-11 0)
(0.925 1.10583e-11 0)
(0.925 5.87033e-12 0)
(0.925 3.27819e-12 0)
(0.925 1.75354e-12 0)
(0.925 9.58449e-13 0)
(0.925 5.46182e-13 0)
(0.925 3.21996e-13 0)
(0.925 1.90919e-13 0)
(0.925 9.83462e-14 0)
(0.925 7.54538e-15 0)
(0.925 -1.15095e-13 0)
(0.925 -3.08216e-13 0)
(0.925 -6.39599e-13 0)
(0.925 -1.2625e-12 0)
(0.925 -2.52672e-12 0)
(0.925 -4.7381e-12 0)
(0.925 -1.13911e-11 0)
(0.925 -1.43716e-11 0)
(0.975 6.75642e-12 0)
(0.975 6.31643e-12 0)
(0.975 2.52218e-12 0)
(0.975 1.17342e-12 0)
(0.975 6.30233e-13 0)
(0.975 3.14157e-13 0)
(0.975 1.64651e-13 0)
(0.975 9.28155e-14 0)
(0.975 5.47154e-14 0)
(0.975 3.27475e-14 0)
(0.975 1.73102e-14 0)
(0.975 1.13234e-15 0)
(0.975 -2.34802e-14 0)
(0.975 -6.31279e-14 0)
(0.975 -1.27823e-13 0)
(0.975 -2.5129e-13 0)
(0.975 -5.28963e-13 0)
(0.975 -9.92997e-13 0)
(0.975 -2.96669e-12 0)
(0.975 -4.14654e-12 0)
)
;

boundaryField
{
    top
    {
        type            fixedValue;
        value           uniform (1 0 0);
    }
    bottom
    {
        type            fixedValue;
        value           uniform (0 0 0);
    }
    inlet
    {
        type            zeroGradient;
    }
    outlet
    {
        type            zeroGradient;
    }
    frontAndBack
    {
        type            empty;
    }
}


// ************************************************************************* //
