/*--------------------------------*- C++ -*----------------------------------*\
  =========                 |
  \\      /  F ield         | OpenFOAM: The Open Source CFD Toolbox
   \\    /   O peration     | Website:  https://openfoam.org
    \\  /    A nd           | Version:  9
     \\/     M anipulation  |
\*---------------------------------------------------------------------------*/
FoamFile
{
    format      ascii;
    class       volScalarField;
    location    "4";
    object      p;
}
// * * * * * * * * * * * * * * * * * * * * * * * * * * * * * * * * * * * * * //

dimensions      [0 2 -2 0 0 0 0];

internalField   nonuniform List<scalar> 
400
(
7.64584e-11
1.26711e-10
1.22522e-10
1.16546e-10
1.06728e-10
9.50991e-11
8.29835e-11
7.06563e-11
5.83235e-11
4.60888e-11
3.38969e-11
2.16694e-11
9.37825e-12
-2.97096e-12
-1.53655e-11
-2.78285e-11
-4.00385e-11
-5.11156e-11
-6.51146e-11
-4.11387e-11
7.25183e-11
1.20735e-10
1.16181e-10
1.12748e-10
1.04425e-10
9.37102e-11
8.21796e-11
7.02068e-11
5.80821e-11
4.59679e-11
3.38454e-11
2.16626e-11
9.41257e-12
-2.8747e-12
-1.51407e-11
-2.73434e-11
-3.90103e-11
-4.87547e-11
-6.35727e-11
-4.00881e-11
7.33179e-11
1.21257e-10
1.12619e-10
1.10291e-10
1.02773e-10
9.26188e-11
8.15067e-11
6.98082e-11
5.78519e-11
4.58376e-11
3.3776e-11
2.16356e-11
9.42459e-12
-2.81119e-12
-1.4985e-11
-2.70387e-11
-3.84823e-11
-4.75998e-11
-6.56162e-11
-4.15613e-11
7.61319e-11
1.2654e-10
1.11868e-10
1.09253e-10
1.01881e-10
9.19114e-11
8.10192e-11
6.9489e-11
5.76449e-11
4.57021e-11
3.3689e-11
2.15856e-11
9.40636e-12
-2.79665e-12
-1.49297e-11
-2.69619e-11
-3.84847e-11
-4.76815e-11
-6.97551e-11
-4.38434e-11
7.92154e-11
1.33862e-10
1.12572e-10
1.09018e-10
1.01445e-10
9.14436e-11
8.06475e-11
6.92153e-11
5.74462e-11
4.55583e-11
3.35872e-11
2.15166e-11
9.36171e-12
-2.82464e-12
-1.49546e-11
-2.70426e-11
-3.88053e-11
-4.83599e-11
-7.43862e-11
-4.60126e-11
8.20622e-11
1.41775e-10
1.13996e-10
1.09215e-10
1.01282e-10
9.11197e-11
8.0341e-11
6.8964e-11
5.72489e-11
4.54068e-11
3.34736e-11
2.14323e-11
9.29578e-12
-2.8854e-12
-1.50344e-11
-2.72153e-11
-3.92772e-11
-4.92467e-11
-7.86338e-11
-4.77774e-11
8.45735e-11
1.49476e-10
1.15722e-10
1.09622e-10
1.01264e-10
9.08759e-11
8.00673e-11
6.87217e-11
5.70505e-11
4.52499e-11
3.33521e-11
2.13373e-11
9.21487e-12
-2.96743e-12
-1.51444e-11
-2.74226e-11
-3.978e-11
-5.01073e-11
-8.20531e-11
-4.90869e-11
8.66495e-11
1.56309e-10
1.17412e-10
1.10042e-10
1.01278e-10
9.06536e-11
7.97983e-11
6.84768e-11
5.68481e-11
4.50889e-11
3.32263e-11
2.12369e-11
9.12707e-12
-3.05633e-12
-1.52565e-11
-2.76094e-11
-4.02052e-11
-5.07661e-11
-8.43346e-11
-4.98924e-11
8.82282e-11
1.61763e-10
1.18793e-10
1.10323e-10
1.01234e-10
9.04093e-11
7.95153e-11
6.82227e-11
5.66411e-11
4.49264e-11
3.31004e-11
2.11372e-11
9.04186e-12
-3.13652e-12
-1.5344e-11
-2.7727e-11
-4.04644e-11
-5.10936e-11
-8.53035e-11
-5.01803e-11
8.92623e-11
1.65465e-10
1.19675e-10
1.10368e-10
1.01078e-10
9.01222e-11
7.92128e-11
6.79603e-11
5.64324e-11
4.47664e-11
3.29792e-11
2.10444e-11
8.96815e-12
-3.19407e-12
-1.53843e-11
-2.77387e-11
-4.04973e-11
-5.10162e-11
-8.48943e-11
-4.9954e-11
8.97182e-11
1.67172e-10
1.19955e-10
1.10139e-10
1.00796e-10
8.97942e-11
7.88999e-11
6.76992e-11
5.62303e-11
4.46147e-11
3.28676e-11
2.09638e-11
8.91299e-12
-3.21924e-12
-1.53631e-11
-2.76253e-11
-4.02755e-11
-5.05097e-11
-8.31391e-11
-4.92356e-11
8.95657e-11
1.66764e-10
1.19609e-10
1.09654e-10
1.00411e-10
8.94495e-11
7.85982e-11
6.7456e-11
5.60462e-11
4.44789e-11
3.277e-11
2.08992e-11
8.88032e-12
-3.20739e-12
-1.52766e-11
-2.73867e-11
-3.98031e-11
-4.95986e-11
-8.01518e-11
-4.80585e-11
8.87773e-11
1.64253e-10
1.18701e-10
1.08984e-10
9.99772e-11
8.91294e-11
7.83377e-11
6.72516e-11
5.58933e-11
4.43669e-11
3.26915e-11
2.08525e-11
8.87066e-12
-3.16191e-12
-1.51327e-11
-2.70425e-11
-3.91176e-11
-4.83531e-11
-7.61212e-11
-4.64692e-11
8.73442e-11
1.59805e-10
1.17383e-10
1.08252e-10
9.9575e-11
8.88882e-11
7.81535e-11
6.71079e-11
5.57845e-11
4.42861e-11
3.26348e-11
2.08236e-11
8.87941e-12
-3.09229e-12
-1.49525e-11
-2.66325e-11
-3.82893e-11
-4.68872e-11
-7.13096e-11
-4.45317e-11
8.52703e-11
1.53757e-10
1.15906e-10
1.07623e-10
9.93045e-11
8.87819e-11
7.80788e-11
6.70433e-11
5.57299e-11
4.42417e-11
3.26018e-11
2.08103e-11
8.89933e-12
-3.01453e-12
-1.47666e-11
-2.62153e-11
-3.74189e-11
-4.53583e-11
-6.60524e-11
-4.23294e-11
8.26141e-11
1.46651e-10
1.14599e-10
1.07289e-10
9.92666e-11
8.88611e-11
7.81371e-11
6.70699e-11
5.57355e-11
4.42346e-11
3.2591e-11
2.08083e-11
8.91979e-12
-2.94899e-12
-1.46123e-11
-2.58606e-11
-3.66303e-11
-4.39581e-11
-6.07572e-11
-3.9971e-11
7.94194e-11
1.39236e-10
1.1389e-10
1.07443e-10
9.95547e-11
8.91599e-11
7.83402e-11
6.71892e-11
5.57997e-11
4.42632e-11
3.25999e-11
2.08115e-11
8.92989e-12
-2.9171e-12
-1.453e-11
-2.56444e-11
-3.60641e-11
-4.29182e-11
-5.59044e-11
-3.75741e-11
7.6153e-11
1.3298e-10
1.14502e-10
1.08395e-10
1.0029e-10
8.97252e-11
7.86991e-11
6.7402e-11
5.59204e-11
4.43248e-11
3.26248e-11
2.08145e-11
8.91604e-12
-2.94627e-12
-1.45682e-11
-2.56606e-11
-3.5913e-11
-4.26124e-11
-5.22914e-11
-3.54605e-11
7.43036e-11
1.30625e-10
1.17767e-10
1.10651e-10
1.01687e-10
9.06322e-11
7.92395e-11
6.77161e-11
5.61004e-11
4.44215e-11
3.26662e-11
2.08126e-11
8.8688e-12
-3.05724e-12
-1.47759e-11
-2.60194e-11
-3.64306e-11
-4.3636e-11
-5.13249e-11
-3.46258e-11
7.65986e-11
1.3456e-10
1.23659e-10
1.14104e-10
1.03626e-10
9.17786e-11
7.98925e-11
6.80895e-11
5.63156e-11
4.45398e-11
3.2718e-11
2.08062e-11
8.79511e-12
-3.23237e-12
-1.51208e-11
-2.66671e-11
-3.75778e-11
-4.59451e-11
-5.3843e-11
-3.65489e-11
)
;

boundaryField
{
    top
    {
        type            zeroGradient;
    }
    bottom
    {
        type            zeroGradient;
    }
    inlet
    {
        type            fixedValue;
        value           uniform 0;
    }
    outlet
    {
        type            fixedValue;
        value           uniform 0;
    }
    frontAndBack
    {
        type            empty;
    }
}


// ************************************************************************* //
