/*--------------------------------*- C++ -*----------------------------------*\
  =========                 |
  \\      /  F ield         | OpenFOAM: The Open Source CFD Toolbox
   \\    /   O peration     | Website:  https://openfoam.org
    \\  /    A nd           | Version:  9
     \\/     M anipulation  |
\*---------------------------------------------------------------------------*/
FoamFile
{
    format      ascii;
    class       surfaceScalarField;
    location    "4";
    object      phi;
}
// * * * * * * * * * * * * * * * * * * * * * * * * * * * * * * * * * * * * * //

dimensions      [0 3 -1 0 0 0 0];

internalField   nonuniform List<scalar> 
760
(
1.25e-06
-4.68301e-16
1.25e-06
-3.89716e-16
1.25e-06
-1.85616e-16
1.25e-06
-1.05566e-16
1.25e-06
-6.0599e-17
1.25e-06
-3.33043e-17
1.25e-06
-1.8252e-17
1.25e-06
-9.55834e-18
1.25e-06
-4.66582e-18
1.25e-06
-2.12555e-18
1.25e-06
-7.98441e-19
1.25e-06
1.74237e-20
1.25e-06
7.67706e-19
1.25e-06
1.98394e-18
1.25e-06
4.70381e-18
1.25e-06
1.18799e-17
1.25e-06
2.83299e-17
1.25e-06
6.33109e-17
1.25e-06
1.99476e-16
2.30252e-16
3.75e-06
-1.12736e-15
3.75e-06
-1.05642e-15
3.75e-06
-6.04004e-16
3.75e-06
-3.59484e-16
3.75e-06
-2.12143e-16
3.75e-06
-1.2071e-16
3.75e-06
-6.74259e-17
3.75e-06
-3.63019e-17
3.75e-06
-1.84707e-17
3.75e-06
-8.62003e-18
3.75e-06
-3.21616e-18
3.75e-06
3.82283e-20
3.75e-06
2.86312e-18
3.75e-06
7.29623e-18
3.75e-06
1.69882e-17
3.75e-06
4.03579e-17
3.75e-06
9.25048e-17
3.75e-06
1.98616e-16
3.75e-06
4.84079e-16
5.11589e-16
6.25e-06
-1.71466e-15
6.25e-06
-1.72025e-15
6.25e-06
-1.09353e-15
6.25e-06
-6.77177e-16
6.25e-06
-4.1035e-16
6.25e-06
-2.39147e-16
6.25e-06
-1.3572e-16
6.25e-06
-7.42331e-17
6.25e-06
-3.84937e-17
6.25e-06
-1.83173e-17
6.25e-06
-7.08009e-18
6.25e-06
-3.93873e-19
6.25e-06
5.15722e-18
6.25e-06
1.3497e-17
6.25e-06
3.12665e-17
6.25e-06
7.21936e-17
6.25e-06
1.60315e-16
6.25e-06
3.31605e-16
6.25e-06
7.02402e-16
7.02927e-16
8.75e-06
-2.15441e-15
8.75e-06
-2.24391e-15
8.75e-06
-1.52736e-15
8.75e-06
-9.80054e-16
8.75e-06
-6.08232e-16
8.75e-06
-3.61514e-16
8.75e-06
-2.07989e-16
8.75e-06
-1.15119e-16
8.75e-06
-6.04196e-17
8.75e-06
-2.91638e-17
8.75e-06
-1.16881e-17
8.75e-06
-1.49755e-18
8.75e-06
6.46605e-18
8.75e-06
1.77756e-17
8.75e-06
4.13552e-17
8.75e-06
9.42076e-17
8.75e-06
2.05142e-16
8.75e-06
4.10212e-16
8.75e-06
8.02233e-16
7.78043e-16
1.125e-05
-2.40172e-15
1.125e-05
-2.55735e-15
1.125e-05
-1.82725e-15
1.125e-05
-1.20751e-15
1.125e-05
-7.6531e-16
1.125e-05
-4.6251e-16
1.125e-05
-2.69221e-16
1.125e-05
-1.50331e-16
1.125e-05
-7.95091e-17
1.125e-05
-3.87469e-17
1.125e-05
-1.60295e-17
1.125e-05
-3.22574e-18
1.125e-05
5.90527e-18
1.125e-05
1.78845e-17
1.125e-05
4.25329e-17
1.125e-05
9.73937e-17
1.125e-05
2.11124e-16
1.125e-05
4.12991e-16
1.125e-05
7.70127e-16
7.29978e-16
1.375e-05
-2.44464e-15
1.375e-05
-2.63674e-15
1.375e-05
-1.95205e-15
1.375e-05
-1.32124e-15
1.375e-05
-8.52531e-16
1.375e-05
-5.22514e-16
1.375e-05
-3.07048e-16
1.375e-05
-1.72484e-16
1.375e-05
-9.15454e-17
1.375e-05
-4.48037e-17
1.375e-05
-1.90407e-17
1.375e-05
-5.29892e-18
1.375e-05
3.10331e-18
1.375e-05
1.26714e-17
1.375e-05
3.25439e-17
1.375e-05
7.80457e-17
1.375e-05
1.73768e-16
1.375e-05
3.38461e-16
1.375e-05
6.18399e-16
5.71753e-16
1.625e-05
-2.29128e-15
1.625e-05
-2.48686e-15
1.625e-05
-1.89076e-15
1.625e-05
-1.30435e-15
1.625e-05
-8.54495e-16
1.625e-05
-5.29855e-16
1.625e-05
-3.13598e-16
1.625e-05
-1.76633e-16
1.625e-05
-9.35969e-17
1.625e-05
-4.56721e-17
1.625e-05
-1.9841e-17
1.625e-05
-7.291e-18
1.625e-05
-1.76748e-18
1.625e-05
2.22299e-18
1.625e-05
1.16771e-17
1.625e-05
3.74864e-17
1.625e-05
9.73356e-17
1.625e-05
1.98605e-16
1.625e-05
3.71535e-16
3.25508e-16
1.875e-05
-1.96643e-15
1.875e-05
-2.13412e-15
1.875e-05
-1.65575e-15
1.875e-05
-1.15957e-15
1.875e-05
-7.696e-16
1.875e-05
-4.81854e-16
1.875e-05
-2.86482e-16
1.875e-05
-1.61062e-16
1.875e-05
-8.45414e-17
1.875e-05
-4.06578e-17
1.875e-05
-1.79443e-17
1.875e-05
-8.76205e-18
1.875e-05
-8.08269e-18
1.875e-05
-1.22794e-17
1.875e-05
-1.75966e-17
1.875e-05
-1.91241e-17
1.875e-05
-7.70884e-18
1.875e-05
1.31569e-17
1.875e-05
6.12524e-17
1.98936e-17
2.125e-05
-1.50618e-15
2.125e-05
-1.61988e-15
2.125e-05
-1.27769e-15
2.125e-05
-9.06132e-16
2.125e-05
-6.08968e-16
2.125e-05
-3.84608e-16
2.125e-05
-2.28969e-16
2.125e-05
-1.27512e-16
2.125e-05
-6.52846e-17
2.125e-05
-3.01661e-17
2.125e-05
-1.34069e-17
2.125e-05
-9.3761e-18
2.125e-05
-1.49279e-17
2.125e-05
-2.88716e-17
2.125e-05
-5.13437e-17
2.125e-05
-8.41399e-17
2.125e-05
-1.27371e-16
2.125e-05
-1.94268e-16
2.125e-05
-2.78389e-16
-3.14129e-16
2.375e-05
-9.55349e-16
2.375e-05
-9.96531e-16
2.375e-05
-8.00734e-16
2.375e-05
-5.7631e-16
2.375e-05
-3.94214e-16
2.375e-05
-2.51736e-16
2.375e-05
-1.49332e-16
2.375e-05
-8.08741e-17
2.375e-05
-3.86387e-17
2.375e-05
-1.5682e-17
2.375e-05
-6.82742e-18
2.375e-05
-9.00118e-18
2.375e-05
-2.13051e-17
2.375e-05
-4.52057e-17
2.375e-05
-8.48854e-17
2.375e-05
-1.48822e-16
2.375e-05
-2.46388e-16
2.375e-05
-3.99345e-16
2.375e-05
-6.13517e-16
-6.45168e-16
2.625e-05
-3.64342e-16
2.625e-05
-3.23824e-16
2.625e-05
-2.78338e-16
2.625e-05
-2.11413e-16
2.625e-05
-1.54385e-16
2.625e-05
-1.02302e-16
2.625e-05
-5.94883e-17
2.625e-05
-2.83351e-17
2.625e-05
-8.79427e-18
2.625e-05
4.71901e-19
2.625e-05
7.32876e-19
2.625e-05
-7.73908e-18
2.625e-05
-2.63048e-17
2.625e-05
-5.89719e-17
2.625e-05
-1.13578e-16
2.625e-05
-2.04635e-16
2.625e-05
-3.50136e-16
2.625e-05
-5.79227e-16
2.625e-05
-9.12611e-16
-9.4348e-16
2.875e-05
2.13613e-16
2.875e-05
3.3437e-16
2.875e-05
2.31053e-16
2.875e-05
1.42685e-16
2.875e-05
7.78131e-17
2.875e-05
4.20304e-17
2.875e-05
2.69319e-17
2.875e-05
2.18413e-17
2.875e-05
1.9426e-17
2.875e-05
1.56092e-17
2.875e-05
7.93756e-18
2.875e-05
-5.89164e-18
2.875e-05
-2.92633e-17
2.875e-05
-6.81983e-17
2.875e-05
-1.33467e-16
2.875e-05
-2.44303e-16
2.875e-05
-4.26104e-16
2.875e-05
-7.14324e-16
2.875e-05
-1.14803e-15
-1.18243e-15
3.125e-05
7.25199e-16
3.125e-05
9.13363e-16
3.125e-05
6.68682e-16
3.125e-05
4.40474e-16
3.125e-05
2.7041e-16
3.125e-05
1.60297e-16
3.125e-05
9.68834e-17
3.125e-05
6.18363e-17
3.125e-05
4.14757e-17
3.125e-05
2.71913e-17
3.125e-05
1.35233e-17
3.125e-05
-3.8696e-18
3.125e-05
-2.97983e-17
3.125e-05
-7.15974e-17
3.125e-05
-1.41781e-16
3.125e-05
-2.62637e-16
3.125e-05
-4.65115e-16
3.125e-05
-7.89693e-16
3.125e-05
-1.29727e-15
-1.33983e-15
3.375e-05
1.12059e-15
3.375e-05
1.35171e-15
3.375e-05
9.8074e-16
3.375e-05
6.42567e-16
3.375e-05
3.96924e-16
3.375e-05
2.35867e-16
3.375e-05
1.40322e-16
3.375e-05
8.58049e-17
3.375e-05
5.40287e-17
3.375e-05
3.3386e-17
3.375e-05
1.65272e-17
3.375e-05
-2.07165e-18
3.375e-05
-2.79007e-17
3.375e-05
-6.86888e-17
3.375e-05
-1.37365e-16
3.375e-05
-2.5718e-16
3.375e-05
-4.6226e-16
3.375e-05
-7.96208e-16
3.375e-05
-1.34421e-15
-1.39922e-15
3.625e-05
1.35591e-15
3.625e-05
1.59563e-15
3.625e-05
1.12534e-15
3.625e-05
7.21953e-16
3.625e-05
4.41399e-16
3.625e-05
2.59715e-16
3.625e-05
1.52375e-16
3.625e-05
9.11402e-17
3.625e-05
5.57324e-17
3.625e-05
3.35224e-17
3.625e-05
1.65876e-17
3.625e-05
-7.6453e-19
3.625e-05
-2.38574e-17
3.625e-05
-5.99076e-17
3.625e-05
-1.20872e-16
3.625e-05
-2.28688e-16
3.625e-05
-4.17708e-16
3.625e-05
-7.31824e-16
3.625e-05
-1.28036e-15
-1.35094e-15
3.875e-05
1.40013e-15
3.875e-05
1.60719e-15
3.875e-05
1.08073e-15
3.875e-05
6.71334e-16
3.875e-05
4.02801e-16
3.875e-05
2.33168e-16
3.875e-05
1.34721e-16
3.875e-05
7.93054e-17
3.875e-05
4.76556e-17
3.875e-05
2.82417e-17
3.875e-05
1.39877e-17
3.875e-05
-2.71239e-20
3.875e-05
-1.82767e-17
3.875e-05
-4.66197e-17
3.875e-05
-9.4816e-17
3.875e-05
-1.81347e-16
3.875e-05
-3.37419e-16
3.875e-05
-6.02998e-16
3.875e-05
-1.10727e-15
-1.19417e-15
4.125e-05
1.23738e-15
4.125e-05
1.37274e-15
4.125e-05
8.57583e-16
4.125e-05
5.09477e-16
4.125e-05
2.98467e-16
4.125e-05
1.68936e-16
4.125e-05
9.59583e-17
4.125e-05
5.5734e-17
4.125e-05
3.3115e-17
4.125e-05
1.94855e-17
4.125e-05
9.69156e-18
4.125e-05
2.28125e-19
4.125e-05
-1.19907e-17
4.125e-05
-3.09909e-17
4.125e-05
-6.35141e-17
4.125e-05
-1.22843e-16
4.125e-05
-2.33646e-16
4.125e-05
-4.26656e-16
4.125e-05
-8.39188e-16
-9.38818e-16
4.375e-05
8.8549e-16
4.375e-05
9.26702e-16
4.375e-05
5.12047e-16
4.375e-05
2.87449e-16
4.375e-05
1.63935e-16
4.375e-05
9.01062e-17
4.375e-05
5.01617e-17
4.375e-05
2.88133e-17
4.375e-05
1.70224e-17
4.375e-05
1.00232e-17
4.375e-05
5.04855e-18
4.375e-05
2.47894e-19
4.375e-05
-6.05633e-18
4.375e-05
-1.5907e-17
4.375e-05
-3.28069e-17
4.375e-05
-6.41423e-17
4.375e-05
-1.25476e-16
4.375e-05
-2.32957e-16
4.375e-05
-5.10626e-16
-6.1102e-16
4.625e-05
3.91303e-16
4.625e-05
3.752e-16
4.625e-05
1.67355e-16
4.625e-05
8.61181e-17
4.625e-05
4.82349e-17
4.625e-05
2.52838e-17
4.625e-05
1.36925e-17
4.625e-05
7.8033e-18
4.625e-05
4.6179e-18
4.625e-05
2.77375e-18
4.625e-05
1.46829e-18
4.625e-05
1.71289e-19
4.625e-05
-1.65265e-18
4.625e-05
-4.54387e-18
4.625e-05
-9.43778e-18
4.625e-05
-1.86532e-17
4.625e-05
-3.80333e-17
4.625e-05
-7.03214e-17
4.625e-05
-1.86737e-16
-2.52917e-16
4.875e-05
4.875e-05
4.875e-05
4.875e-05
4.875e-05
4.875e-05
4.875e-05
4.875e-05
4.875e-05
4.875e-05
4.875e-05
4.875e-05
4.875e-05
4.875e-05
4.875e-05
4.875e-05
4.875e-05
4.875e-05
4.875e-05
)
;

boundaryField
{
    top
    {
        type            calculated;
        value           uniform 0;
    }
    bottom
    {
        type            calculated;
        value           uniform 0;
    }
    inlet
    {
        type            calculated;
        value           nonuniform List<scalar> 
20
(
-1.25e-06
-3.75e-06
-6.25e-06
-8.75e-06
-1.125e-05
-1.375e-05
-1.625e-05
-1.875e-05
-2.125e-05
-2.375e-05
-2.625e-05
-2.875e-05
-3.125e-05
-3.375e-05
-3.625e-05
-3.875e-05
-4.125e-05
-4.375e-05
-4.625e-05
-4.875e-05
)
;
    }
    outlet
    {
        type            calculated;
        value           nonuniform List<scalar> 
20
(
1.25e-06
3.75e-06
6.25e-06
8.75e-06
1.125e-05
1.375e-05
1.625e-05
1.875e-05
2.125e-05
2.375e-05
2.625e-05
2.875e-05
3.125e-05
3.375e-05
3.625e-05
3.875e-05
4.125e-05
4.375e-05
4.625e-05
4.875e-05
)
;
    }
    frontAndBack
    {
        type            empty;
        value           nonuniform List<scalar> 0();
    }
}


// ************************************************************************* //
