/*--------------------------------*- C++ -*----------------------------------*\
  =========                 |
  \\      /  F ield         | OpenFOAM: The Open Source CFD Toolbox
   \\    /   O peration     | Website:  https://openfoam.org
    \\  /    A nd           | Version:  9
     \\/     M anipulation  |
\*---------------------------------------------------------------------------*/
FoamFile
{
    format      ascii;
    class       volVectorField;
    location    "4";
    object      U;
}
// * * * * * * * * * * * * * * * * * * * * * * * * * * * * * * * * * * * * * //

dimensions      [0 1 -1 0 0 0 0];

internalField   nonuniform List<vector> 
400
(
(0.025 -2.29267e-12 0)
(0.025 -1.835e-12 0)
(0.025 -7.7288e-13 0)
(0.025 -4.12332e-13 0)
(0.025 -2.27621e-13 0)
(0.025 -1.20705e-13 0)
(0.025 -6.50711e-14 0)
(0.025 -3.25623e-14 0)
(0.025 -1.46756e-14 0)
(0.025 -6.25813e-15 0)
(0.025 -2.25596e-15 0)
(0.025 3.34591e-16 0)
(0.025 3.02704e-15 0)
(0.025 7.61105e-15 0)
(0.025 1.81707e-14 0)
(0.025 4.82341e-14 0)
(0.025 1.20322e-13 0)
(0.025 2.86508e-13 0)
(0.025 1.00664e-12 0)
(0.025 1.17961e-12 0)
(0.075 -7.89207e-12 0)
(0.075 -7.01742e-12 0)
(0.075 -3.66516e-12 0)
(0.075 -2.10428e-12 0)
(0.075 -1.21543e-12 0)
(0.075 -6.75802e-13 0)
(0.075 -3.71549e-13 0)
(0.075 -1.96505e-13 0)
(0.075 -9.74381e-14 0)
(0.075 -4.4214e-14 0)
(0.075 -1.57382e-14 0)
(0.075 1.49016e-15 0)
(0.075 1.70241e-14 0)
(0.075 4.23299e-14 0)
(0.075 9.91355e-14 0)
(0.075 2.4248e-13 0)
(0.075 5.70112e-13 0)
(0.075 1.26832e-12 0)
(0.075 3.44232e-12 0)
(0.075 3.77817e-12 0)
(0.125 -1.43512e-11 0)
(0.125 -1.3937e-11 0)
(0.125 -8.41807e-12 0)
(0.125 -5.09345e-12 0)
(0.125 -3.0382e-12 0)
(0.125 -1.74706e-12 0)
(0.125 -9.82453e-13 0)
(0.125 -5.32394e-13 0)
(0.125 -2.73165e-13 0)
(0.125 -1.28605e-13 0)
(0.125 -4.86267e-14 0)
(0.125 -4.37089e-16 0)
(0.125 4.10366e-14 0)
(0.125 1.05219e-13 0)
(0.125 2.4377e-13 0)
(0.125 5.69459e-13 0)
(0.125 1.28299e-12 0)
(0.125 2.70705e-12 0)
(0.125 6.09013e-12 0)
(0.125 6.26359e-12 0)
(0.175 -1.97464e-11 0)
(0.175 -2.01954e-11 0)
(0.175 -1.33167e-11 0)
(0.175 -8.38806e-12 0)
(0.175 -5.13845e-12 0)
(0.175 -3.0214e-12 0)
(0.175 -1.72494e-12 0)
(0.175 -9.48869e-13 0)
(0.175 -4.95216e-13 0)
(0.175 -2.37416e-13 0)
(0.175 -9.32437e-14 0)
(0.175 -7.84372e-15 0)
(0.175 6.17251e-14 0)
(0.175 1.64078e-13 0)
(0.175 3.79532e-13 0)
(0.175 8.67336e-13 0)
(0.175 1.90207e-12 0)
(0.175 3.86097e-12 0)
(0.175 7.79737e-12 0)
(0.175 7.69309e-12 0)
(0.225 -2.32848e-11 0)
(0.225 -2.45375e-11 0)
(0.225 -1.71569e-11 0)
(0.225 -1.1176e-11 0)
(0.225 -7.00772e-12 0)
(0.225 -4.19928e-12 0)
(0.225 -2.42977e-12 0)
(0.225 -1.35119e-12 0)
(0.225 -7.12497e-13 0)
(0.225 -3.45938e-13 0)
(0.225 -1.40828e-13 0)
(0.225 -2.24877e-14 0)
(0.225 6.70786e-14 0)
(0.225 1.90454e-13 0)
(0.225 4.45044e-13 0)
(0.225 1.01026e-12 0)
(0.225 2.18402e-12 0)
(0.225 4.30432e-12 0)
(0.225 8.15955e-12 0)
(0.225 7.83571e-12 0)
(0.275 -2.47383e-11 0)
(0.275 -2.65291e-11 0)
(0.275 -1.93461e-11 0)
(0.275 -1.29517e-11 0)
(0.275 -8.28578e-12 0)
(0.275 -5.04453e-12 0)
(0.275 -2.9514e-12 0)
(0.275 -1.6541e-12 0)
(0.275 -8.77419e-13 0)
(0.275 -4.29223e-13 0)
(0.275 -1.80143e-13 0)
(0.275 -4.24811e-14 0)
(0.275 5.03968e-14 0)
(0.275 1.66082e-13 0)
(0.275 4.03117e-13 0)
(0.275 9.31855e-13 0)
(0.275 2.0264e-12 0)
(0.275 3.93197e-12 0)
(0.275 7.19841e-12 0)
(0.275 6.75836e-12 0)
(0.325 -2.4143e-11 0)
(0.325 -2.61398e-11 0)
(0.325 -1.96609e-11 0)
(0.325 -1.34535e-11 0)
(0.325 -8.75341e-12 0)
(0.325 -5.39987e-12 0)
(0.325 -3.18676e-12 0)
(0.325 -1.79441e-12 0)
(0.325 -9.53213e-13 0)
(0.325 -4.66977e-13 0)
(0.325 -2.01041e-13 0)
(0.325 -6.40296e-14 0)
(0.325 1.08552e-14 0)
(0.325 8.59037e-14 0)
(0.325 2.44959e-13 0)
(0.325 6.23539e-13 0)
(0.325 1.43806e-12 0)
(0.325 2.81965e-12 0)
(0.325 5.13854e-12 0)
(0.325 4.67145e-12 0)
(0.375 -2.16753e-11 0)
(0.375 -2.35463e-11 0)
(0.375 -1.81268e-11 0)
(0.375 -1.26183e-11 0)
(0.375 -8.32747e-12 0)
(0.375 -5.19286e-12 0)
(0.375 -3.08329e-12 0)
(0.375 -1.73759e-12 0)
(0.375 -9.18649e-13 0)
(0.375 -4.46735e-13 0)
(0.375 -1.96187e-13 0)
(0.375 -8.24091e-14 0)
(0.375 -4.71499e-14 0)
(0.375 -4.30083e-14 0)
(0.375 -1.40918e-14 0)
(0.375 1.21283e-13 0)
(0.375 4.9981e-13 0)
(0.375 1.13949e-12 0)
(0.375 2.27462e-12 0)
(0.375 1.83737e-12 0)
(0.425 -1.76478e-11 0)
(0.425 -1.90986e-11 0)
(0.425 -1.49694e-11 0)
(0.425 -1.05634e-11 0)
(0.425 -7.05921e-12 0)
(0.425 -4.44212e-12 0)
(0.425 -2.64582e-12 0)
(0.425 -1.48376e-12 0)
(0.425 -7.72479e-13 0)
(0.425 -3.66827e-13 0)
(0.425 -1.63196e-13 0)
(0.425 -9.34404e-14 0)
(0.425 -1.15403e-13 0)
(0.425 -2.03979e-13 0)
(0.425 -3.40125e-13 0)
(0.425 -5.0742e-13 0)
(0.425 -6.6004e-13 0)
(0.425 -8.83761e-13 0)
(0.425 -1.05614e-12 0)
(0.425 -1.43899e-12 0)
(0.475 -1.24718e-11 0)
(0.475 -1.32746e-11 0)
(0.475 -1.05738e-11 0)
(0.475 -7.55541e-12 0)
(0.475 -5.11872e-12 0)
(0.475 -3.25025e-12 0)
(0.475 -1.93447e-12 0)
(0.475 -1.06745e-12 0)
(0.475 -5.34036e-13 0)
(0.475 -2.37058e-13 0)
(0.475 -1.05429e-13 0)
(0.475 -9.46154e-14 0)
(0.475 -1.83868e-13 0)
(0.475 -3.74431e-13 0)
(0.475 -6.88176e-13 0)
(0.475 -1.17731e-12 0)
(0.475 -1.89023e-12 0)
(0.475 -3.00399e-12 0)
(0.475 -4.50843e-12 0)
(0.475 -4.84108e-12 0)
(0.525 -6.6315e-12 0)
(0.525 -6.64406e-12 0)
(0.525 -5.43859e-12 0)
(0.525 -3.97266e-12 0)
(0.525 -2.76779e-12 0)
(0.525 -1.78687e-12 0)
(0.525 -1.05432e-12 0)
(0.525 -5.51671e-13 0)
(0.525 -2.39895e-13 0)
(0.525 -7.73543e-14 0)
(0.525 -3.15703e-14 0)
(0.525 -8.57956e-14 0)
(0.525 -2.42618e-13 0)
(0.525 -5.30146e-13 0)
(0.525 -1.0099e-12 0)
(0.525 -1.79915e-12 0)
(0.525 -3.03713e-12 0)
(0.525 -4.98045e-12 0)
(0.525 -7.75048e-12 0)
(0.525 -8.05854e-12 0)
(0.575 -6.52013e-13 0)
(0.575 1.66432e-13 0)
(0.575 -1.34466e-13 0)
(0.575 -2.62721e-13 0)
(0.575 -3.25406e-13 0)
(0.575 -2.6332e-13 0)
(0.575 -1.38489e-13 0)
(0.575 -1.71481e-14 0)
(0.575 6.27008e-14 0)
(0.575 8.6e-14 0)
(0.575 4.57341e-14 0)
(0.575 -6.91826e-14 0)
(0.575 -2.83529e-13 0)
(0.575 -6.48957e-13 0)
(0.575 -1.26086e-12 0)
(0.575 -2.29158e-12 0)
(0.575 -3.96181e-12 0)
(0.575 -6.59705e-12 0)
(0.575 -1.04828e-11 0)
(0.575 -1.08059e-11 0)
(0.625 4.92547e-12 0)
(0.625 6.50441e-12 0)
(0.625 4.74027e-12 0)
(0.625 3.10414e-12 0)
(0.625 1.87358e-12 0)
(0.625 1.0985e-12 0)
(0.625 6.73636e-13 0)
(0.625 4.51779e-13 0)
(0.625 3.24518e-13 0)
(0.625 2.25452e-13 0)
(0.625 1.12729e-13 0)
(0.625 -4.86359e-14 0)
(0.625 -3.01287e-13 0)
(0.625 -7.14045e-13 0)
(0.625 -1.40638e-12 0)
(0.625 -2.59048e-12 0)
(0.625 -4.55322e-12 0)
(0.625 -7.67798e-12 0)
(0.625 -1.24515e-11 0)
(0.625 -1.28357e-11 0)
(0.675 9.5782e-12 0)
(0.675 1.17291e-11 0)
(0.675 8.60811e-12 0)
(0.675 5.68887e-12 0)
(0.675 3.52461e-12 0)
(0.675 2.10181e-12 0)
(0.675 1.2607e-12 0)
(0.675 7.83099e-13 0)
(0.675 5.03961e-13 0)
(0.675 3.1784e-13 0)
(0.675 1.57564e-13 0)
(0.675 -2.85308e-14 0)
(0.675 -2.93946e-13 0)
(0.675 -7.16305e-13 0)
(0.675 -1.42616e-12 0)
(0.675 -2.65641e-12 0)
(0.675 -4.73897e-12 0)
(0.675 -8.1001e-12 0)
(0.675 -1.34604e-11 0)
(0.675 -1.39519e-11 0)
(0.725 1.28271e-11 0)
(0.725 1.52506e-11 0)
(0.725 1.09737e-11 0)
(0.725 7.14312e-12 0)
(0.725 4.40374e-12 0)
(0.725 2.61047e-12 0)
(0.725 1.54338e-12 0)
(0.725 9.31789e-13 0)
(0.725 5.76035e-13 0)
(0.725 3.49781e-13 0)
(0.725 1.73126e-13 0)
(0.725 -1.24568e-14 0)
(0.725 -2.63006e-13 0)
(0.725 -6.55441e-13 0)
(0.725 -1.31743e-12 0)
(0.725 -2.48019e-12 0)
(0.725 -4.49379e-12 0)
(0.725 -7.80484e-12 0)
(0.725 -1.33829e-11 0)
(0.725 -1.40209e-11 0)
(0.775 1.42862e-11 0)
(0.775 1.6587e-11 0)
(0.775 1.14903e-11 0)
(0.775 7.27658e-12 0)
(0.775 4.41486e-12 0)
(0.775 2.58039e-12 0)
(0.775 1.50297e-12 0)
(0.775 8.90871e-13 0)
(0.775 5.38773e-13 0)
(0.775 3.20838e-13 0)
(0.775 1.5887e-13 0)
(0.775 -2.25358e-15 0)
(0.775 -2.13046e-13 0)
(0.775 -5.40543e-13 0)
(0.775 -1.09596e-12 0)
(0.775 -2.08594e-12 0)
(0.775 -3.84627e-12 0)
(0.775 -6.80841e-12 0)
(0.775 -1.21761e-11 0)
(0.775 -1.29853e-11 0)
(0.825 1.36622e-11 0)
(0.825 1.54096e-11 0)
(0.825 1.00519e-11 0)
(0.825 6.11906e-12 0)
(0.825 3.62897e-12 0)
(0.825 2.07829e-12 0)
(0.825 1.19032e-12 0)
(0.825 6.95143e-13 0)
(0.825 4.14535e-13 0)
(0.825 2.44269e-13 0)
(0.825 1.2126e-13 0)
(0.825 2.2867e-15 0)
(0.825 -1.51124e-13 0)
(0.825 -3.89119e-13 0)
(0.825 -7.95488e-13 0)
(0.825 -1.5316e-12 0)
(0.825 -2.88279e-12 0)
(0.825 -5.21408e-12 0)
(0.825 -9.8893e-12 0)
(0.825 -1.08639e-11 0)
(0.875 1.09113e-11 0)
(0.875 1.17707e-11 0)
(0.875 6.96625e-12 0)
(0.875 4.01968e-12 0)
(0.875 2.31898e-12 0)
(0.875 1.29287e-12 0)
(0.875 7.26278e-13 0)
(0.875 4.18772e-13 0)
(0.875 2.47496e-13 0)
(0.875 1.45237e-13 0)
(0.875 7.25145e-14 0)
(0.875 2.72238e-15 0)
(0.875 -8.77372e-14 0)
(0.875 -2.28607e-13 0)
(0.875 -4.69876e-13 0)
(0.875 -9.14188e-13 0)
(0.875 -1.7647e-12 0)
(0.875 -3.25937e-12 0)
(0.875 -6.75357e-12 0)
(0.875 -7.80678e-12 0)
(0.925 6.47866e-12 0)
(0.925 6.52422e-12 0)
(0.925 3.27729e-12 0)
(0.925 1.74015e-12 0)
(0.925 9.71589e-13 0)
(0.925 5.19532e-13 0)
(0.925 2.83847e-13 0)
(0.925 1.61708e-13 0)
(0.925 9.53652e-14 0)
(0.925 5.65616e-14 0)
(0.925 2.90749e-14 0)
(0.925 2.19631e-15 0)
(0.925 -3.40955e-14 0)
(0.925 -9.12971e-14 0)
(0.925 -1.89514e-13 0)
(0.925 -3.74064e-13 0)
(0.925 -7.48734e-13 0)
(0.925 -1.40417e-12 0)
(0.925 -3.37496e-12 0)
(0.925 -4.25738e-12 0)
(0.975 2.00181e-12 0)
(0.975 1.87202e-12 0)
(0.975 7.48703e-13 0)
(0.975 3.48703e-13 0)
(0.975 1.87201e-13 0)
(0.975 9.32383e-14 0)
(0.975 4.88118e-14 0)
(0.975 2.75022e-14 0)
(0.975 1.62123e-14 0)
(0.975 9.71443e-15 0)
(0.975 5.10085e-15 0)
(0.975 3.23581e-16 0)
(0.975 -6.95103e-15 0)
(0.975 -1.87017e-14 0)
(0.975 -3.7901e-14 0)
(0.975 -7.45535e-14 0)
(0.975 -1.56982e-13 0)
(0.975 -2.94827e-13 0)
(0.975 -8.79581e-13 0)
(0.975 -1.22868e-12 0)
)
;

boundaryField
{
    top
    {
        type            fixedValue;
        value           uniform (1 0 0);
    }
    bottom
    {
        type            fixedValue;
        value           uniform (0 0 0);
    }
    inlet
    {
        type            zeroGradient;
    }
    outlet
    {
        type            zeroGradient;
    }
    frontAndBack
    {
        type            empty;
    }
}


// ************************************************************************* //
