/*--------------------------------*- C++ -*----------------------------------*\
  =========                 |
  \\      /  F ield         | OpenFOAM: The Open Source CFD Toolbox
   \\    /   O peration     | Website:  https://openfoam.org
    \\  /    A nd           | Version:  9
     \\/     M anipulation  |
\*---------------------------------------------------------------------------*/
FoamFile
{
    format      ascii;
    class       volScalarField;
    location    "1.4";
    object      p;
}
// * * * * * * * * * * * * * * * * * * * * * * * * * * * * * * * * * * * * * //

dimensions      [0 2 -2 0 0 0 0];

internalField   nonuniform List<scalar> 
400
(
2.08041e-07
3.44788e-07
3.33399e-07
3.1712e-07
2.90395e-07
2.58744e-07
2.25772e-07
1.92227e-07
1.58668e-07
1.25376e-07
9.22015e-08
5.89298e-08
2.54862e-08
-8.11555e-09
-4.18406e-08
-7.57532e-08
-1.08982e-07
-1.39134e-07
-1.77209e-07
-1.11954e-07
1.97301e-07
3.2848e-07
3.16076e-07
3.06739e-07
2.84097e-07
2.54946e-07
2.23575e-07
1.90999e-07
1.58009e-07
1.25047e-07
9.20627e-08
5.89138e-08
2.55824e-08
-7.84966e-09
-4.12222e-08
-7.44216e-08
-1.0616e-07
-1.32663e-07
-1.72986e-07
-1.09083e-07
1.99486e-07
3.29919e-07
3.06409e-07
3.00071e-07
2.79616e-07
2.51985e-07
2.2175e-07
1.89918e-07
1.57386e-07
1.24695e-07
9.18754e-08
5.88419e-08
2.56163e-08
-7.67617e-09
-4.07988e-08
-7.35949e-08
-1.0473e-07
-1.29534e-07
-1.78555e-07
-1.13097e-07
2.07146e-07
3.44301e-07
3.04375e-07
2.97257e-07
2.77194e-07
2.50065e-07
2.20426e-07
1.89052e-07
1.56825e-07
1.24328e-07
9.16404e-08
5.87073e-08
2.55682e-08
-7.63552e-09
-4.06478e-08
-7.33863e-08
-1.04738e-07
-1.29761e-07
-1.89821e-07
-1.19308e-07
2.15535e-07
3.64224e-07
3.06289e-07
2.96616e-07
2.76009e-07
2.48793e-07
2.19416e-07
1.88309e-07
1.56286e-07
1.23939e-07
9.13649e-08
5.85209e-08
2.54484e-08
-7.71014e-09
-4.07143e-08
-7.36042e-08
-1.05609e-07
-1.31606e-07
-2.02421e-07
-1.2521e-07
2.23281e-07
3.85752e-07
3.10164e-07
2.97154e-07
2.75565e-07
2.47912e-07
2.18583e-07
1.87627e-07
1.55751e-07
1.23528e-07
9.10577e-08
5.82932e-08
2.52705e-08
-7.87388e-09
-4.09301e-08
-7.40725e-08
-1.06892e-07
-1.34017e-07
-2.13978e-07
-1.30011e-07
2.30115e-07
4.06706e-07
3.14861e-07
2.98262e-07
2.75518e-07
2.4725e-07
2.17839e-07
1.86969e-07
1.55213e-07
1.23103e-07
9.07289e-08
5.80364e-08
2.50516e-08
-8.09541e-09
-4.12281e-08
-7.46354e-08
-1.08259e-07
-1.36358e-07
-2.23281e-07
-1.33574e-07
2.35764e-07
4.25298e-07
3.19461e-07
2.99405e-07
2.75556e-07
2.46647e-07
2.17109e-07
1.86304e-07
1.54663e-07
1.22666e-07
9.03882e-08
5.77649e-08
2.48141e-08
-8.33573e-09
-4.15323e-08
-7.51428e-08
-1.09414e-07
-1.38149e-07
-2.29488e-07
-1.35765e-07
2.4006e-07
4.40139e-07
3.23217e-07
3.00171e-07
2.75435e-07
2.45984e-07
2.1634e-07
1.85614e-07
1.54101e-07
1.22226e-07
9.00469e-08
5.74953e-08
2.45836e-08
-8.55254e-09
-4.17691e-08
-7.54611e-08
-1.10118e-07
-1.3904e-07
-2.32123e-07
-1.36547e-07
2.42874e-07
4.50211e-07
3.25619e-07
3.00293e-07
2.75012e-07
2.45203e-07
2.15519e-07
1.84902e-07
1.53535e-07
1.21792e-07
8.9718e-08
5.72441e-08
2.43844e-08
-8.70796e-09
-4.18771e-08
-7.54923e-08
-1.10207e-07
-1.38828e-07
-2.31008e-07
-1.3593e-07
2.44114e-07
4.54853e-07
3.2638e-07
2.9967e-07
2.74247e-07
2.44311e-07
2.14668e-07
1.84193e-07
1.52988e-07
1.21381e-07
8.94154e-08
5.70261e-08
2.42358e-08
-8.77485e-09
-4.18177e-08
-7.5183e-08
-1.09602e-07
-1.37449e-07
-2.26232e-07
-1.33974e-07
2.437e-07
4.53744e-07
3.25441e-07
2.98351e-07
2.732e-07
2.43375e-07
2.13847e-07
1.83532e-07
1.52488e-07
1.21014e-07
8.91524e-08
5.68519e-08
2.41484e-08
-8.74197e-09
-4.15807e-08
-7.45323e-08
-1.08316e-07
-1.34969e-07
-2.18103e-07
-1.30771e-07
2.41555e-07
4.46914e-07
3.2297e-07
2.96529e-07
2.7202e-07
2.42506e-07
2.1314e-07
1.82976e-07
1.52072e-07
1.20711e-07
8.89409e-08
5.67269e-08
2.41225e-08
-8.61685e-09
-4.11886e-08
-7.35945e-08
-1.06449e-07
-1.31579e-07
-2.07134e-07
-1.26446e-07
2.37656e-07
4.34812e-07
3.19383e-07
2.94538e-07
2.70926e-07
2.4185e-07
2.1264e-07
1.82585e-07
1.51777e-07
1.20492e-07
8.87893e-08
5.66507e-08
2.41473e-08
-8.42628e-09
-4.06968e-08
-7.24787e-08
-1.04195e-07
-1.27589e-07
-1.94041e-07
-1.21174e-07
2.32014e-07
4.18354e-07
3.15365e-07
2.92826e-07
2.7019e-07
2.4156e-07
2.12438e-07
1.82411e-07
1.51631e-07
1.20372e-07
8.87012e-08
5.66165e-08
2.42025e-08
-8.21379e-09
-4.01893e-08
-7.13426e-08
-1.01826e-07
-1.23428e-07
-1.79735e-07
-1.1518e-07
2.24786e-07
3.99021e-07
3.11811e-07
2.91917e-07
2.70087e-07
2.41776e-07
2.12599e-07
1.82485e-07
1.51647e-07
1.20354e-07
8.86739e-08
5.66125e-08
2.42604e-08
-8.03394e-09
-3.97687e-08
-7.03767e-08
-9.96805e-08
-1.19619e-07
-1.65326e-07
-1.08763e-07
2.16095e-07
3.78849e-07
3.09883e-07
2.92338e-07
2.70872e-07
2.4259e-07
2.13152e-07
1.8281e-07
1.51823e-07
1.20433e-07
8.86992e-08
5.66231e-08
2.429e-08
-7.94629e-09
-3.95441e-08
-6.9788e-08
-9.81395e-08
-1.16789e-07
-1.52122e-07
-1.02241e-07
2.07206e-07
3.61823e-07
3.11539e-07
2.94922e-07
2.72871e-07
2.44126e-07
2.14127e-07
1.8339e-07
1.52152e-07
1.20602e-07
8.87676e-08
5.66305e-08
2.42543e-08
-8.0222e-09
-3.9646e-08
-6.9829e-08
-9.77236e-08
-1.1595e-07
-1.42286e-07
-9.64876e-08
2.02167e-07
3.55402e-07
3.20399e-07
3.01044e-07
2.7666e-07
2.46586e-07
2.15593e-07
1.84243e-07
1.52643e-07
1.20866e-07
8.88805e-08
5.6626e-08
2.41268e-08
-8.32233e-09
-4.02079e-08
-7.07991e-08
-9.91227e-08
-1.18719e-07
-1.39642e-07
-9.42099e-08
2.0843e-07
3.66147e-07
3.36503e-07
3.10492e-07
2.81966e-07
2.49724e-07
2.17382e-07
1.85267e-07
1.53234e-07
1.21191e-07
8.90227e-08
5.66094e-08
2.39251e-08
-8.80198e-09
-4.11525e-08
-7.25732e-08
-1.02266e-07
-1.25044e-07
-1.46528e-07
-9.94568e-08
)
;

boundaryField
{
    top
    {
        type            zeroGradient;
    }
    bottom
    {
        type            zeroGradient;
    }
    inlet
    {
        type            fixedValue;
        value           uniform 0;
    }
    outlet
    {
        type            fixedValue;
        value           uniform 0;
    }
    frontAndBack
    {
        type            empty;
    }
}


// ************************************************************************* //
