/*--------------------------------*- C++ -*----------------------------------*\
  =========                 |
  \\      /  F ield         | OpenFOAM: The Open Source CFD Toolbox
   \\    /   O peration     | Website:  https://openfoam.org
    \\  /    A nd           | Version:  9
     \\/     M anipulation  |
\*---------------------------------------------------------------------------*/
FoamFile
{
    format      ascii;
    class       surfaceScalarField;
    location    "1.4";
    object      phi;
}
// * * * * * * * * * * * * * * * * * * * * * * * * * * * * * * * * * * * * * //

dimensions      [0 3 -1 0 0 0 0];

internalField   nonuniform List<scalar> 
760
(
1.24978e-06
-1.27416e-12
1.24978e-06
-1.06035e-12
1.24978e-06
-5.05093e-13
1.24978e-06
-2.87183e-13
1.24978e-06
-1.64838e-13
1.24978e-06
-9.05802e-14
1.24978e-06
-4.96265e-14
1.24978e-06
-2.59734e-14
1.24978e-06
-1.26644e-14
1.24978e-06
-5.74891e-15
1.24978e-06
-2.1378e-15
1.24978e-06
8.40771e-17
1.24978e-06
2.12393e-15
1.24978e-06
5.43481e-15
1.24978e-06
1.28316e-14
1.24978e-06
3.23477e-14
1.24978e-06
7.70916e-14
1.24978e-06
1.72398e-13
1.24978e-06
5.42805e-13
6.26592e-13
3.74934e-06
-3.06726e-12
3.74934e-06
-2.87429e-12
3.74934e-06
-1.64331e-12
3.74934e-06
-9.77976e-13
3.74935e-06
-5.77087e-13
3.74935e-06
-3.28317e-13
3.74935e-06
-1.83343e-13
3.74935e-06
-9.86595e-14
3.74935e-06
-5.01385e-14
3.74935e-06
-2.33301e-14
3.74935e-06
-8.61522e-15
3.74935e-06
2.42773e-16
3.74935e-06
7.93323e-15
3.74935e-06
2.00011e-14
3.74935e-06
4.63705e-14
3.74935e-06
1.09948e-13
3.74935e-06
2.51823e-13
3.74934e-06
5.40588e-13
3.74934e-06
1.31732e-12
1.39218e-12
6.24892e-06
-4.66514e-12
6.24892e-06
-4.68035e-12
6.24893e-06
-2.9751e-12
6.24893e-06
-1.84224e-12
6.24893e-06
-1.11625e-12
6.24893e-06
-6.50442e-13
6.24893e-06
-3.69032e-13
6.24893e-06
-2.0173e-13
6.24893e-06
-1.04478e-13
6.24893e-06
-4.95614e-14
6.24893e-06
-1.8967e-14
6.24893e-06
-7.66923e-16
6.24893e-06
1.43385e-14
6.24893e-06
3.70447e-14
6.24893e-06
8.53947e-14
6.24893e-06
1.96735e-13
6.24893e-06
4.36482e-13
6.24893e-06
9.0256e-13
6.24893e-06
1.9115e-12
1.91293e-12
8.74853e-06
-5.86154e-12
8.74853e-06
-6.10502e-12
8.74853e-06
-4.15534e-12
8.74853e-06
-2.66617e-12
8.74853e-06
-1.65449e-12
8.74853e-06
-9.83223e-13
8.74854e-06
-5.65494e-13
8.74854e-06
-3.12794e-13
8.74854e-06
-1.6395e-13
8.74854e-06
-7.88777e-14
8.74854e-06
-3.12948e-14
8.74854e-06
-3.55518e-15
8.74854e-06
1.81143e-14
8.74854e-06
4.88971e-14
8.74854e-06
1.13057e-13
8.74854e-06
2.56833e-13
8.74854e-06
5.58643e-13
8.74853e-06
1.11661e-12
8.74853e-06
2.18328e-12
2.11744e-12
1.12482e-05
-6.53433e-12
1.12482e-05
-6.95772e-12
1.12482e-05
-4.97114e-12
1.12482e-05
-3.28489e-12
1.12482e-05
-2.08171e-12
1.12482e-05
-1.25783e-12
1.12482e-05
-7.31902e-13
1.12482e-05
-4.08402e-13
1.12482e-05
-2.15673e-13
1.12482e-05
-1.04722e-13
1.12482e-05
-4.2878e-14
1.12482e-05
-8.02117e-15
1.12482e-05
1.68326e-14
1.12482e-05
4.9427e-14
1.12482e-05
1.16489e-13
1.12482e-05
2.65723e-13
1.12482e-05
5.75123e-13
1.12482e-05
1.12435e-12
1.12482e-05
2.09606e-12
1.98675e-12
1.37479e-05
-6.651e-12
1.37479e-05
-7.17361e-12
1.37479e-05
-5.31057e-12
1.37479e-05
-3.59418e-12
1.37479e-05
-2.31885e-12
1.37479e-05
-1.42091e-12
1.37479e-05
-8.34633e-13
1.37479e-05
-4.6847e-13
1.37479e-05
-2.48194e-13
1.37479e-05
-1.20962e-13
1.37479e-05
-5.08332e-14
1.37479e-05
-1.34239e-14
1.37479e-05
9.45095e-15
1.37479e-05
3.54733e-14
1.37479e-05
8.95412e-14
1.37479e-05
2.13305e-13
1.37479e-05
4.73679e-13
1.37479e-05
9.21713e-13
1.37479e-05
1.68332e-12
1.5563e-12
1.62476e-05
-6.23365e-12
1.62476e-05
-6.76571e-12
1.62476e-05
-5.1437e-12
1.62476e-05
-3.5481e-12
1.62476e-05
-2.32405e-12
1.62476e-05
-1.44073e-12
1.62476e-05
-8.52284e-13
1.62476e-05
-4.79568e-13
1.62476e-05
-2.53564e-13
1.62476e-05
-1.2312e-13
1.62476e-05
-5.27895e-14
1.62476e-05
-1.86298e-14
1.62476e-05
-3.58985e-15
1.62476e-05
7.25406e-15
1.62476e-05
3.29767e-14
1.62476e-05
1.03141e-13
1.62476e-05
2.65868e-13
1.62476e-05
5.41296e-13
1.62476e-05
1.0117e-12
8.86331e-13
1.87474e-05
-5.34972e-12
1.87474e-05
-5.80587e-12
1.87474e-05
-4.50421e-12
1.87474e-05
-3.15409e-12
1.87474e-05
-2.09295e-12
1.87474e-05
-1.31001e-12
1.87474e-05
-7.78363e-13
1.87474e-05
-4.37045e-13
1.87474e-05
-2.28766e-13
1.87474e-05
-1.09303e-13
1.87474e-05
-4.74599e-14
1.87474e-05
-2.24582e-14
1.87474e-05
-2.06016e-14
1.87474e-05
-3.20348e-14
1.87474e-05
-4.65286e-14
1.87474e-05
-5.07474e-14
1.87474e-05
-1.98152e-14
1.87474e-05
3.67952e-14
1.87474e-05
1.67473e-13
5.47936e-14
2.12473e-05
-4.09741e-12
2.12473e-05
-4.40665e-12
2.12473e-05
-3.47551e-12
2.12473e-05
-2.46448e-12
2.12473e-05
-1.65585e-12
2.12473e-05
-1.04532e-12
2.12473e-05
-6.21774e-13
2.12473e-05
-3.45656e-13
2.12473e-05
-1.76293e-13
2.12473e-05
-8.06568e-14
2.12473e-05
-3.50029e-14
2.12473e-05
-2.40215e-14
2.12473e-05
-3.91179e-14
2.12473e-05
-7.70675e-14
2.12473e-05
-1.38251e-13
2.12473e-05
-2.27549e-13
2.12473e-05
-3.45338e-13
2.12473e-05
-5.27572e-13
2.12473e-05
-7.56668e-13
-8.54071e-13
2.37472e-05
-2.59865e-12
2.37472e-05
-2.7106e-12
2.37472e-05
-2.17779e-12
2.37472e-05
-1.56708e-12
2.37472e-05
-1.07153e-12
2.37472e-05
-6.83769e-13
2.37472e-05
-4.05043e-13
2.37472e-05
-2.18705e-13
2.37472e-05
-1.03754e-13
2.37472e-05
-4.12403e-14
2.37472e-05
-1.70818e-14
2.37472e-05
-2.29736e-14
2.37472e-05
-5.64286e-14
2.37472e-05
-1.21481e-13
2.37472e-05
-2.29487e-13
2.37472e-05
-4.03534e-13
2.37472e-05
-6.69183e-13
2.37472e-05
-1.08559e-12
2.37472e-05
-1.66857e-12
-1.75485e-12
2.62472e-05
-9.90634e-13
2.62472e-05
-8.803e-13
2.62472e-05
-7.56469e-13
2.62472e-05
-5.74275e-13
2.62472e-05
-4.19041e-13
2.62472e-05
-2.77226e-13
2.62472e-05
-1.6061e-13
2.62472e-05
-7.57735e-14
2.62472e-05
-2.2563e-14
2.62472e-05
2.66788e-15
2.62472e-05
3.40528e-15
2.62472e-05
-1.9595e-14
2.62472e-05
-7.00763e-14
2.62472e-05
-1.58958e-13
2.62472e-05
-3.07608e-13
2.62472e-05
-5.55468e-13
2.62472e-05
-9.5154e-13
2.62472e-05
-1.5751e-12
2.62472e-05
-2.48247e-12
-2.5666e-12
2.87473e-05
5.81849e-13
2.87473e-05
9.1047e-13
2.87473e-05
6.29436e-13
2.87473e-05
3.89101e-13
2.87473e-05
2.12652e-13
2.87473e-05
1.15379e-13
2.87473e-05
7.44241e-14
2.87473e-05
6.0671e-14
2.87473e-05
5.41319e-14
2.87473e-05
4.37502e-14
2.87473e-05
2.28931e-14
2.87473e-05
-1.46976e-14
2.87473e-05
-7.82246e-14
2.87473e-05
-1.84193e-13
2.87473e-05
-3.6183e-13
2.87473e-05
-6.63521e-13
2.87473e-05
-1.15837e-12
2.87473e-05
-1.94282e-12
2.87473e-05
-3.12314e-12
-3.21685e-12
3.12474e-05
1.97374e-12
3.12474e-05
2.48573e-12
3.12474e-05
1.82004e-12
3.12474e-05
1.19921e-12
3.12474e-05
7.36562e-13
3.12474e-05
4.37062e-13
3.12474e-05
2.64604e-13
3.12474e-05
1.69348e-13
3.12474e-05
1.1397e-13
3.12474e-05
7.51167e-14
3.12474e-05
3.79142e-14
3.12474e-05
-9.37859e-15
3.12474e-05
-7.98743e-14
3.12474e-05
-1.93625e-13
3.12474e-05
-3.84648e-13
3.12474e-05
-7.13566e-13
3.12474e-05
-1.26465e-12
3.12474e-05
-2.14802e-12
3.12474e-05
-3.52933e-12
-3.64522e-12
3.37476e-05
3.04948e-12
3.37476e-05
3.67832e-12
3.37476e-05
2.66898e-12
3.37476e-05
1.74892e-12
3.37476e-05
1.08064e-12
3.37476e-05
6.42524e-13
3.37476e-05
3.82622e-13
3.37476e-05
2.34355e-13
3.37476e-05
1.47918e-13
3.37476e-05
9.17982e-14
3.37476e-05
4.58985e-14
3.37476e-05
-4.69542e-15
3.37476e-05
-7.49375e-14
3.37476e-05
-1.85935e-13
3.37476e-05
-3.72862e-13
3.37476e-05
-6.98931e-13
3.37476e-05
-1.25705e-12
3.37476e-05
-2.16587e-12
3.37476e-05
-3.65716e-12
-3.80692e-12
3.62479e-05
3.68966e-12
3.62479e-05
4.34186e-12
3.62479e-05
3.06229e-12
3.62479e-05
1.96475e-12
3.62479e-05
1.20148e-12
3.62479e-05
7.07227e-13
3.62479e-05
4.15219e-13
3.62479e-05
2.48669e-13
3.62479e-05
1.52359e-13
3.62479e-05
9.193e-14
3.62479e-05
4.58287e-14
3.62479e-05
-1.36477e-15
3.62479e-05
-6.4204e-14
3.62479e-05
-1.62294e-13
3.62479e-05
-3.28198e-13
3.62479e-05
-6.21622e-13
3.62479e-05
-1.13601e-12
3.62479e-05
-1.99084e-12
3.62479e-05
-3.48352e-12
-3.67561e-12
3.87482e-05
3.80986e-12
3.87482e-05
4.37318e-12
3.87482e-05
2.94076e-12
3.87482e-05
1.82685e-12
3.87482e-05
1.0963e-12
3.87482e-05
6.34808e-13
3.87482e-05
3.67018e-13
3.87482e-05
2.16271e-13
3.87482e-05
1.3016e-13
3.87482e-05
7.73438e-14
3.87482e-05
3.85568e-14
3.87482e-05
4.16974e-16
3.87482e-05
-4.92542e-14
3.87482e-05
-1.26363e-13
3.87482e-05
-2.57513e-13
3.87482e-05
-4.9301e-13
3.87482e-05
-9.17742e-13
3.87482e-05
-1.64046e-12
3.87482e-05
-3.01265e-12
-3.24913e-12
4.12485e-05
3.36694e-12
4.12485e-05
3.7352e-12
4.12485e-05
2.33349e-12
4.12485e-05
1.38633e-12
4.12485e-05
8.12251e-13
4.12485e-05
4.599e-13
4.12485e-05
2.61395e-13
4.12485e-05
1.51949e-13
4.12485e-05
9.03961e-14
4.12485e-05
5.33052e-14
4.12485e-05
2.66743e-14
4.12485e-05
9.57032e-16
4.12485e-05
-3.2351e-14
4.12485e-05
-8.40752e-14
4.12485e-05
-1.7254e-13
4.12485e-05
-3.34001e-13
4.12485e-05
-6.35545e-13
4.12485e-05
-1.16079e-12
4.12485e-05
-2.28328e-12
-2.55437e-12
4.37489e-05
2.40939e-12
4.37489e-05
2.52151e-12
4.37489e-05
1.39332e-12
4.37489e-05
7.82125e-13
4.37489e-05
4.46108e-13
4.37489e-05
2.45303e-13
4.37489e-05
1.3664e-13
4.37489e-05
7.85539e-14
4.37489e-05
4.64308e-14
4.37489e-05
2.73911e-14
4.37489e-05
1.38903e-14
4.37489e-05
8.28723e-16
4.37489e-05
-1.63376e-14
4.37489e-05
-4.31409e-14
4.37489e-05
-8.91318e-14
4.37489e-05
-1.74425e-13
4.37489e-05
-3.41329e-13
4.37489e-05
-6.33846e-13
4.37489e-05
-1.38937e-12
-1.66247e-12
4.62493e-05
1.06476e-12
4.62493e-05
1.02087e-12
4.62493e-05
4.55489e-13
4.62493e-05
2.34289e-13
4.62493e-05
1.31222e-13
4.62493e-05
6.88284e-14
4.62493e-05
3.7299e-14
4.62493e-05
2.12663e-14
4.62493e-05
1.25991e-14
4.62493e-05
7.56851e-15
4.62493e-05
4.04404e-15
4.62493e-05
5.11841e-16
4.62493e-05
-4.45733e-15
4.62493e-05
-1.23208e-14
4.62493e-05
-2.5639e-14
4.62493e-05
-5.07235e-14
4.62493e-05
-1.03453e-13
4.62493e-05
-1.91399e-13
4.62493e-05
-5.08128e-13
-6.88148e-13
4.87498e-05
4.87498e-05
4.87498e-05
4.87498e-05
4.87498e-05
4.87498e-05
4.87498e-05
4.87498e-05
4.87498e-05
4.87498e-05
4.87498e-05
4.87498e-05
4.87498e-05
4.87498e-05
4.87498e-05
4.87498e-05
4.87498e-05
4.87498e-05
4.87498e-05
)
;

boundaryField
{
    top
    {
        type            calculated;
        value           uniform 0;
    }
    bottom
    {
        type            calculated;
        value           uniform 0;
    }
    inlet
    {
        type            calculated;
        value           nonuniform List<scalar> 
20
(
-1.24978e-06
-3.74934e-06
-6.24892e-06
-8.74853e-06
-1.12482e-05
-1.37479e-05
-1.62476e-05
-1.87474e-05
-2.12473e-05
-2.37472e-05
-2.62472e-05
-2.87473e-05
-3.12474e-05
-3.37476e-05
-3.62479e-05
-3.87482e-05
-4.12485e-05
-4.37489e-05
-4.62493e-05
-4.87498e-05
)
;
    }
    outlet
    {
        type            calculated;
        value           nonuniform List<scalar> 
20
(
1.24978e-06
3.74934e-06
6.24893e-06
8.74853e-06
1.12482e-05
1.37479e-05
1.62476e-05
1.87474e-05
2.12473e-05
2.37472e-05
2.62472e-05
2.87473e-05
3.12474e-05
3.37476e-05
3.62479e-05
3.87482e-05
4.12485e-05
4.37489e-05
4.62493e-05
4.87498e-05
)
;
    }
    frontAndBack
    {
        type            empty;
        value           nonuniform List<scalar> 0();
    }
}


// ************************************************************************* //
