/*--------------------------------*- C++ -*----------------------------------*\
  =========                 |
  \\      /  F ield         | OpenFOAM: The Open Source CFD Toolbox
   \\    /   O peration     | Website:  https://openfoam.org
    \\  /    A nd           | Version:  9
     \\/     M anipulation  |
\*---------------------------------------------------------------------------*/
FoamFile
{
    format      ascii;
    class       volVectorField;
    location    "1.4";
    object      U;
}
// * * * * * * * * * * * * * * * * * * * * * * * * * * * * * * * * * * * * * //

dimensions      [0 1 -1 0 0 0 0];

internalField   nonuniform List<vector> 
400
(
(0.0249955 -6.23479e-09 0)
(0.0249956 -4.98635e-09 0)
(0.0249956 -2.094e-09 0)
(0.0249956 -1.11521e-09 0)
(0.0249956 -6.14849e-10 0)
(0.0249956 -3.25528e-10 0)
(0.0249956 -1.75309e-10 0)
(0.0249956 -8.75864e-11 0)
(0.0249956 -3.93737e-11 0)
(0.0249956 -1.67336e-11 0)
(0.0249956 -6.00028e-12 0)
(0.0249956 9.11232e-13 0)
(0.0249956 8.18062e-12 0)
(0.0249956 2.05022e-11 0)
(0.0249956 4.8835e-11 0)
(0.0249956 1.29867e-10 0)
(0.0249956 3.24359e-10 0)
(0.0249956 7.74154e-10 0)
(0.0249956 2.73567e-09 0)
(0.0249956 3.20825e-09 0)
(0.0749868 -2.14691e-08 0)
(0.0749868 -1.90858e-08 0)
(0.0749869 -9.96185e-09 0)
(0.0749869 -5.71733e-09 0)
(0.0749869 -3.30144e-09 0)
(0.0749869 -1.83499e-09 0)
(0.0749869 -1.00849e-09 0)
(0.0749869 -5.33044e-10 0)
(0.0749869 -2.63992e-10 0)
(0.0749869 -1.1945e-10 0)
(0.0749869 -4.20876e-11 0)
(0.0749869 4.64563e-12 0)
(0.0749869 4.68678e-11 0)
(0.0749869 1.15586e-10 0)
(0.0749869 2.69698e-10 0)
(0.0749869 6.58821e-10 0)
(0.0749869 1.54837e-09 0)
(0.0749869 3.44557e-09 0)
(0.0749869 9.36346e-09 0)
(0.0749869 1.02796e-08 0)
(0.124978 -3.90458e-08 0)
(0.124978 -3.7919e-08 0)
(0.124978 -2.29022e-08 0)
(0.124979 -1.38564e-08 0)
(0.124979 -8.26452e-09 0)
(0.124979 -4.75168e-09 0)
(0.124979 -2.67138e-09 0)
(0.124979 -1.44685e-09 0)
(0.124979 -7.41482e-10 0)
(0.124979 -3.4804e-10 0)
(0.124979 -1.3029e-10 0)
(0.124979 8.75273e-13 0)
(0.124979 1.13754e-10 0)
(0.124979 2.88484e-10 0)
(0.124979 6.65451e-10 0)
(0.124979 1.55146e-09 0)
(0.124979 3.49266e-09 0)
(0.124979 7.36751e-09 0)
(0.124979 1.65732e-08 0)
(0.124979 1.70454e-08 0)
(0.174971 -5.37249e-08 0)
(0.174971 -5.49467e-08 0)
(0.174971 -3.62306e-08 0)
(0.174971 -2.282e-08 0)
(0.174971 -1.39781e-08 0)
(0.174971 -8.2179e-09 0)
(0.174971 -4.69028e-09 0)
(0.174971 -2.57853e-09 0)
(0.174971 -1.34405e-09 0)
(0.174971 -6.42345e-10 0)
(0.174971 -2.49783e-10 0)
(0.174971 -1.73017e-11 0)
(0.174971 1.72002e-10 0)
(0.174971 4.50649e-10 0)
(0.174971 1.03694e-09 0)
(0.174971 2.36405e-09 0)
(0.174971 5.17936e-09 0)
(0.174971 1.05096e-08 0)
(0.174971 2.12204e-08 0)
(0.174971 2.09363e-08 0)
(0.224964 -6.33512e-08 0)
(0.224964 -6.67592e-08 0)
(0.224964 -4.6677e-08 0)
(0.224964 -3.04036e-08 0)
(0.224964 -1.9062e-08 0)
(0.224964 -1.14207e-08 0)
(0.224964 -6.606e-09 0)
(0.224964 -3.67117e-09 0)
(0.224964 -1.93314e-09 0)
(0.224964 -9.35416e-10 0)
(0.224964 -3.76993e-10 0)
(0.224964 -5.48418e-11 0)
(0.224964 1.88917e-10 0)
(0.224964 5.24673e-10 0)
(0.224964 1.21738e-09 0)
(0.224964 2.75496e-09 0)
(0.224964 5.94829e-09 0)
(0.224964 1.17173e-08 0)
(0.224964 2.2207e-08 0)
(0.224964 2.13253e-08 0)
(0.274957 -6.73048e-08 0)
(0.274957 -7.21767e-08 0)
(0.274957 -5.26318e-08 0)
(0.274957 -3.52331e-08 0)
(0.274957 -2.25376e-08 0)
(0.274957 -1.37186e-08 0)
(0.274957 -8.02323e-09 0)
(0.274957 -4.49323e-09 0)
(0.274957 -2.37957e-09 0)
(0.274957 -1.15961e-09 0)
(0.274957 -4.81574e-10 0)
(0.274957 -1.06808e-10 0)
(0.274957 1.46019e-10 0)
(0.274957 4.60723e-10 0)
(0.274957 1.10565e-09 0)
(0.274957 2.54389e-09 0)
(0.274957 5.52141e-09 0)
(0.274957 1.07057e-08 0)
(0.274957 1.95929e-08 0)
(0.274957 1.83948e-08 0)
(0.324952 -6.56842e-08 0)
(0.324952 -7.11162e-08 0)
(0.324952 -5.34872e-08 0)
(0.324952 -3.6597e-08 0)
(0.324952 -2.38083e-08 0)
(0.324952 -1.46837e-08 0)
(0.324952 -8.6618e-09 0)
(0.324952 -4.87295e-09 0)
(0.324952 -2.58353e-09 0)
(0.324952 -1.26005e-09 0)
(0.324952 -5.36071e-10 0)
(0.324952 -1.63115e-10 0)
(0.324952 4.07552e-11 0)
(0.324952 2.44837e-10 0)
(0.324952 6.7758e-10 0)
(0.324952 1.70716e-09 0)
(0.324952 3.92241e-09 0)
(0.324952 7.6806e-09 0)
(0.324952 1.39891e-08 0)
(0.324952 1.2717e-08 0)
(0.374948 -5.89691e-08 0)
(0.374948 -6.40587e-08 0)
(0.374948 -4.93121e-08 0)
(0.374948 -3.43235e-08 0)
(0.374948 -2.26481e-08 0)
(0.374948 -1.41191e-08 0)
(0.374948 -8.37868e-09 0)
(0.374948 -4.71659e-09 0)
(0.374948 -2.48759e-09 0)
(0.374948 -1.20301e-09 0)
(0.374948 -5.20852e-10 0)
(0.374948 -2.11134e-10 0)
(0.374948 -1.15095e-10 0)
(0.374948 -1.03975e-10 0)
(0.374948 -2.54279e-11 0)
(0.374948 3.42298e-10 0)
(0.374948 1.37105e-09 0)
(0.374948 3.11012e-09 0)
(0.374948 6.19714e-09 0)
(0.374948 5.00598e-09 0)
(0.424946 -4.80103e-08 0)
(0.424945 -5.19567e-08 0)
(0.424946 -4.07209e-08 0)
(0.424945 -2.87319e-08 0)
(0.424945 -1.91965e-08 0)
(0.424945 -1.20753e-08 0)
(0.424945 -7.1871e-09 0)
(0.424945 -4.02461e-09 0)
(0.424945 -2.08867e-09 0)
(0.424945 -9.84192e-10 0)
(0.424945 -4.29647e-10 0)
(0.424945 -2.39698e-10 0)
(0.424945 -2.99382e-10 0)
(0.424945 -5.40516e-10 0)
(0.424945 -9.11275e-10 0)
(0.424945 -1.36708e-09 0)
(0.424945 -1.78378e-09 0)
(0.424945 -2.39442e-09 0)
(0.424945 -2.86545e-09 0)
(0.424946 -3.90873e-09 0)
(0.474944 -3.39269e-08 0)
(0.474944 -3.61102e-08 0)
(0.474944 -2.87608e-08 0)
(0.474944 -2.05473e-08 0)
(0.474944 -1.39165e-08 0)
(0.474944 -8.83178e-09 0)
(0.474944 -5.25083e-09 0)
(0.474944 -2.89107e-09 0)
(0.474944 -1.4393e-09 0)
(0.474944 -6.30576e-10 0)
(0.474944 -2.71797e-10 0)
(0.474944 -2.42198e-10 0)
(0.474944 -4.84897e-10 0)
(0.474944 -1.00356e-09 0)
(0.474944 -1.85764e-09 0)
(0.474944 -3.18923e-09 0)
(0.474944 -5.13075e-09 0)
(0.474944 -8.16341e-09 0)
(0.474944 -1.22591e-08 0)
(0.474944 -1.31659e-08 0)
(0.524944 -1.80363e-08 0)
(0.524944 -1.80695e-08 0)
(0.524944 -1.47888e-08 0)
(0.524944 -1.07993e-08 0)
(0.524944 -7.5202e-09 0)
(0.524944 -4.85023e-09 0)
(0.524944 -2.8559e-09 0)
(0.524944 -1.48751e-09 0)
(0.524944 -6.38858e-10 0)
(0.524944 -1.9623e-10 0)
(0.524944 -7.11899e-11 0)
(0.524944 -2.18348e-10 0)
(0.524944 -6.44749e-10 0)
(0.524944 -1.42718e-09 0)
(0.524944 -2.73312e-09 0)
(0.524944 -4.88155e-09 0)
(0.524944 -8.2518e-09 0)
(0.524944 -1.35417e-08 0)
(0.524944 -2.10812e-08 0)
(0.524944 -2.19209e-08 0)
(0.574946 -1.76733e-09 0)
(0.574946 4.60276e-10 0)
(0.574946 -3.57647e-10 0)
(0.574945 -7.056e-10 0)
(0.574945 -8.75509e-10 0)
(0.574945 -7.05608e-10 0)
(0.574945 -3.64672e-10 0)
(0.574945 -3.36712e-11 0)
(0.574945 1.83968e-10 0)
(0.574945 2.47456e-10 0)
(0.574945 1.38119e-10 0)
(0.574945 -1.74099e-10 0)
(0.574945 -7.56804e-10 0)
(0.574945 -1.75123e-09 0)
(0.574945 -3.41678e-09 0)
(0.574945 -6.22237e-09 0)
(0.574945 -1.07688e-08 0)
(0.574945 -1.79414e-08 0)
(0.574945 -2.85168e-08 0)
(0.574946 -2.93971e-08 0)
(0.624948 1.34076e-08 0)
(0.624948 1.77041e-08 0)
(0.624948 1.29048e-08 0)
(0.624948 8.45413e-09 0)
(0.624948 5.10659e-09 0)
(0.624948 2.99866e-09 0)
(0.624948 1.84371e-09 0)
(0.624948 1.24106e-09 0)
(0.624948 8.95085e-10 0)
(0.624948 6.25591e-10 0)
(0.624948 3.18902e-10 0)
(0.624948 -1.19797e-10 0)
(0.624948 -8.06614e-10 0)
(0.624948 -1.92995e-09 0)
(0.624948 -3.81427e-09 0)
(0.624948 -7.0371e-09 0)
(0.624948 -1.23793e-08 0)
(0.624948 -2.08838e-08 0)
(0.624948 -3.38744e-08 0)
(0.624948 -3.49209e-08 0)
(0.674952 2.60663e-08 0)
(0.674952 3.19187e-08 0)
(0.674952 2.34274e-08 0)
(0.674952 1.54853e-08 0)
(0.674952 9.5974e-09 0)
(0.674952 5.72717e-09 0)
(0.674952 3.43935e-09 0)
(0.674952 2.14074e-09 0)
(0.674952 1.38145e-09 0)
(0.674952 8.75349e-10 0)
(0.674952 4.39023e-10 0)
(0.674952 -6.71079e-11 0)
(0.674952 -7.88817e-10 0)
(0.674952 -1.93819e-09 0)
(0.674952 -3.87028e-09 0)
(0.674952 -7.21841e-09 0)
(0.674952 -1.28862e-08 0)
(0.674952 -2.20336e-08 0)
(0.674952 -3.66208e-08 0)
(0.674952 -3.79589e-08 0)
(0.724957 3.49053e-08 0)
(0.724957 4.14991e-08 0)
(0.724957 2.98625e-08 0)
(0.724957 1.94404e-08 0)
(0.724957 1.19877e-08 0)
(0.724957 7.10942e-09 0)
(0.724957 4.20659e-09 0)
(0.724957 2.54318e-09 0)
(0.724957 1.57551e-09 0)
(0.724957 9.60138e-10 0)
(0.724957 4.79205e-10 0)
(0.724957 -2.56072e-11 0)
(0.724957 -7.07172e-10 0)
(0.724957 -1.77504e-09 0)
(0.724957 -3.57669e-09 0)
(0.724957 -6.74112e-09 0)
(0.724957 -1.22209e-08 0)
(0.724957 -2.12316e-08 0)
(0.724957 -3.6411e-08 0)
(0.724957 -3.81476e-08 0)
(0.774964 3.88742e-08 0)
(0.774964 4.51341e-08 0)
(0.774964 3.12667e-08 0)
(0.774964 1.98019e-08 0)
(0.774964 1.20164e-08 0)
(0.774964 7.02574e-09 0)
(0.774964 4.0948e-09 0)
(0.774964 2.42983e-09 0)
(0.774964 1.47199e-09 0)
(0.774964 8.79053e-10 0)
(0.774964 4.38203e-10 0)
(0.774964 -1.55971e-13 0)
(0.774964 -5.73794e-10 0)
(0.774964 -1.46487e-09 0)
(0.774964 -2.9763e-09 0)
(0.774964 -5.67057e-09 0)
(0.774964 -1.04611e-08 0)
(0.774964 -1.8522e-08 0)
(0.774964 -3.31284e-08 0)
(0.774964 -3.53304e-08 0)
(0.824971 3.71756e-08 0)
(0.824971 4.193e-08 0)
(0.824971 2.73525e-08 0)
(0.824971 1.66515e-08 0)
(0.824971 9.87674e-09 0)
(0.824971 5.65813e-09 0)
(0.824971 3.24263e-09 0)
(0.824971 1.8954e-09 0)
(0.824971 1.13181e-09 0)
(0.824971 6.68519e-10 0)
(0.824971 3.33882e-10 0)
(0.824971 1.02555e-11 0)
(0.824971 -4.07587e-10 0)
(0.824971 -1.05523e-09 0)
(0.824971 -2.1609e-09 0)
(0.824971 -4.16429e-09 0)
(0.824971 -7.84157e-09 0)
(0.824971 -1.41859e-08 0)
(0.824971 -2.69075e-08 0)
(0.824971 -2.95591e-08 0)
(0.874978 2.96896e-08 0)
(0.874978 3.20274e-08 0)
(0.874979 1.89547e-08 0)
(0.874979 1.09372e-08 0)
(0.874979 6.31054e-09 0)
(0.874979 3.51946e-09 0)
(0.874979 1.97827e-09 0)
(0.874979 1.14158e-09 0)
(0.874979 6.75303e-10 0)
(0.874979 3.97058e-10 0)
(0.874979 1.9946e-10 0)
(0.874979 9.73387e-12 0)
(0.874979 -2.36767e-10 0)
(0.874979 -6.20193e-10 0)
(0.874979 -1.27652e-09 0)
(0.874979 -2.48573e-09 0)
(0.874979 -4.8002e-09 0)
(0.874979 -8.86766e-09 0)
(0.874979 -1.83754e-08 0)
(0.874978 -2.12409e-08 0)
(0.924987 1.76254e-08 0)
(0.924987 1.77464e-08 0)
(0.924987 8.9077e-09 0)
(0.924987 4.72671e-09 0)
(0.924987 2.63908e-09 0)
(0.924987 1.41144e-09 0)
(0.924987 7.71524e-10 0)
(0.924987 4.39842e-10 0)
(0.924987 2.59526e-10 0)
(0.924987 1.54133e-10 0)
(0.924987 7.98745e-11 0)
(0.924987 6.86193e-12 0)
(0.924987 -9.17659e-11 0)
(0.924987 -2.47102e-10 0)
(0.924987 -5.13864e-10 0)
(0.924987 -1.01531e-09 0)
(0.924987 -2.03349e-09 0)
(0.924987 -3.81474e-09 0)
(0.924987 -9.17776e-09 0)
(0.924987 -1.15811e-08 0)
(0.974996 5.44431e-09 0)
(0.974996 5.08861e-09 0)
(0.974996 2.02848e-09 0)
(0.974996 9.41661e-10 0)
(0.974996 5.0511e-10 0)
(0.974996 2.51237e-10 0)
(0.974996 1.31476e-10 0)
(0.974996 7.40821e-11 0)
(0.974996 4.37109e-11 0)
(0.974996 2.62109e-11 0)
(0.974996 1.39629e-11 0)
(0.974996 1.04609e-12 0)
(0.974996 -1.85821e-11 0)
(0.974996 -5.02636e-11 0)
(0.974996 -1.02072e-10 0)
(0.974996 -2.01007e-10 0)
(0.974996 -4.24101e-10 0)
(0.974996 -7.97046e-10 0)
(0.974996 -2.38862e-09 0)
(0.974996 -3.34072e-09 0)
)
;

boundaryField
{
    top
    {
        type            fixedValue;
        value           uniform (1 0 0);
    }
    bottom
    {
        type            fixedValue;
        value           uniform (0 0 0);
    }
    inlet
    {
        type            zeroGradient;
    }
    outlet
    {
        type            zeroGradient;
    }
    frontAndBack
    {
        type            empty;
    }
}


// ************************************************************************* //
