/*--------------------------------*- C++ -*----------------------------------*\
  =========                 |
  \\      /  F ield         | OpenFOAM: The Open Source CFD Toolbox
   \\    /   O peration     | Website:  https://openfoam.org
    \\  /    A nd           | Version:  9
     \\/     M anipulation  |
\*---------------------------------------------------------------------------*/
FoamFile
{
    format      ascii;
    class       volScalarField;
    location    "3.8";
    object      p;
}
// * * * * * * * * * * * * * * * * * * * * * * * * * * * * * * * * * * * * * //

dimensions      [0 2 -2 0 0 0 0];

internalField   nonuniform List<scalar> 
400
(
1.40489e-10
2.32829e-10
2.25133e-10
2.14147e-10
1.96106e-10
1.74737e-10
1.52475e-10
1.29825e-10
1.07165e-10
8.46845e-11
6.22829e-11
3.98157e-11
1.72317e-11
-5.4592e-12
-2.82332e-11
-5.11333e-11
-7.35692e-11
-9.39248e-11
-1.19647e-10
-7.55908e-11
1.33244e-10
2.21836e-10
2.13468e-10
2.07162e-10
1.9187e-10
1.72184e-10
1.50998e-10
1.28999e-10
1.06721e-10
8.44622e-11
6.21883e-11
3.98032e-11
1.72948e-11
-5.28229e-12
-2.782e-11
-5.02418e-11
-7.16784e-11
-8.95817e-11
-1.16808e-10
-7.36579e-11
1.34716e-10
2.22799e-10
2.06927e-10
2.02649e-10
1.88837e-10
1.70179e-10
1.49761e-10
1.28267e-10
1.06298e-10
8.42229e-11
6.20607e-11
3.97537e-11
1.73169e-11
-5.16557e-12
-2.75339e-11
-4.96819e-11
-7.07089e-11
-8.74614e-11
-1.20565e-10
-7.63661e-11
1.39887e-10
2.32508e-10
2.05549e-10
2.00744e-10
1.87198e-10
1.68879e-10
1.48866e-10
1.2768e-10
1.05918e-10
8.39742e-11
6.1901e-11
3.96619e-11
1.72837e-11
-5.13886e-12
-2.74323e-11
-4.95409e-11
-7.07133e-11
-8.7612e-11
-1.28171e-10
-8.05595e-11
1.45552e-10
2.45962e-10
2.06842e-10
2.00311e-10
1.86397e-10
1.6802e-10
1.48183e-10
1.27177e-10
1.05553e-10
8.37101e-11
6.17139e-11
3.9535e-11
1.72019e-11
-5.19025e-12
-2.74781e-11
-4.9689e-11
-7.13024e-11
-8.88587e-11
-1.3668e-10
-8.45452e-11
1.50783e-10
2.605e-10
2.09459e-10
2.00674e-10
1.86097e-10
1.67424e-10
1.47619e-10
1.26716e-10
1.05191e-10
8.34319e-11
6.15053e-11
3.93802e-11
1.70807e-11
-5.30175e-12
-2.76248e-11
-5.00062e-11
-7.21694e-11
-9.04883e-11
-1.44485e-10
-8.77879e-11
1.55397e-10
2.7465e-10
2.1263e-10
2.01422e-10
1.86064e-10
1.66976e-10
1.47116e-10
1.26271e-10
1.04826e-10
8.31437e-11
6.12821e-11
3.92057e-11
1.69318e-11
-5.4523e-12
-2.78269e-11
-5.03872e-11
-7.30933e-11
-9.20695e-11
-1.50767e-10
-9.01941e-11
1.59212e-10
2.87205e-10
2.15736e-10
2.02193e-10
1.86089e-10
1.66568e-10
1.46622e-10
1.25821e-10
1.04454e-10
8.28479e-11
6.1051e-11
3.90214e-11
1.67702e-11
-5.61546e-12
-2.80332e-11
-5.07306e-11
-7.38742e-11
-9.32798e-11
-1.54959e-10
-9.16738e-11
1.62113e-10
2.97227e-10
2.18272e-10
2.02709e-10
1.86007e-10
1.66119e-10
1.46102e-10
1.25353e-10
1.04074e-10
8.25491e-11
6.08198e-11
3.88383e-11
1.66132e-11
-5.76274e-12
-2.81938e-11
-5.09467e-11
-7.43504e-11
-9.38819e-11
-1.56739e-10
-9.22026e-11
1.64013e-10
3.04029e-10
2.19893e-10
2.02792e-10
1.8572e-10
1.65591e-10
1.45546e-10
1.24871e-10
1.03691e-10
8.22552e-11
6.05968e-11
3.86678e-11
1.64775e-11
-5.86863e-12
-2.82677e-11
-5.09684e-11
-7.4411e-11
-9.37391e-11
-1.55987e-10
-9.17868e-11
1.6485e-10
3.07164e-10
2.20407e-10
2.0237e-10
1.85203e-10
1.64988e-10
1.44971e-10
1.24392e-10
1.0332e-10
8.19768e-11
6.03913e-11
3.85193e-11
1.63766e-11
-5.91501e-12
-2.82285e-11
-5.07603e-11
-7.40035e-11
-9.28085e-11
-1.52762e-10
-9.04669e-11
1.6457e-10
3.06415e-10
2.19772e-10
2.01479e-10
1.84495e-10
1.64354e-10
1.44416e-10
1.23945e-10
1.02981e-10
8.17276e-11
6.02128e-11
3.84006e-11
1.63164e-11
-5.89365e-12
-2.80694e-11
-5.03213e-11
-7.31355e-11
-9.1135e-11
-1.47274e-10
-8.8304e-11
1.63122e-10
3.01802e-10
2.18104e-10
2.00248e-10
1.83697e-10
1.63766e-10
1.43937e-10
1.23568e-10
1.027e-10
8.15221e-11
6.00686e-11
3.83149e-11
1.62978e-11
-5.80974e-12
-2.7805e-11
-4.96889e-11
-7.1876e-11
-8.88465e-11
-1.39868e-10
-8.53843e-11
1.60488e-10
2.93629e-10
2.15681e-10
1.98904e-10
1.82958e-10
1.63322e-10
1.43599e-10
1.23303e-10
1.025e-10
8.1373e-11
5.99651e-11
3.82627e-11
1.63139e-11
-5.68237e-12
-2.74736e-11
-4.89358e-11
-7.03547e-11
-8.6153e-11
-1.31027e-10
-8.18246e-11
1.56677e-10
2.82514e-10
2.12967e-10
1.97747e-10
1.82461e-10
1.63126e-10
1.43462e-10
1.23185e-10
1.02399e-10
8.12905e-11
5.99044e-11
3.82386e-11
1.63504e-11
-5.53992e-12
-2.71322e-11
-4.81693e-11
-6.87558e-11
-8.33444e-11
-1.21368e-10
-7.77781e-11
1.51796e-10
2.69458e-10
2.10566e-10
1.97132e-10
1.82391e-10
1.63271e-10
1.43569e-10
1.23233e-10
1.02409e-10
8.12777e-11
5.98845e-11
3.82347e-11
1.63885e-11
-5.41914e-12
-2.68489e-11
-4.75175e-11
-6.73074e-11
-8.07725e-11
-1.11639e-10
-7.34448e-11
1.45927e-10
2.55835e-10
2.09263e-10
1.97415e-10
1.82919e-10
1.63821e-10
1.43941e-10
1.23452e-10
1.02527e-10
8.13304e-11
5.99008e-11
3.82406e-11
1.64078e-11
-5.36095e-12
-2.66979e-11
-4.7121e-11
-6.62672e-11
-7.88622e-11
-1.02722e-10
-6.90408e-11
1.39925e-10
2.44339e-10
2.10385e-10
1.99163e-10
1.8427e-10
1.64859e-10
1.446e-10
1.23843e-10
1.02748e-10
8.14441e-11
5.99468e-11
3.82447e-11
1.63823e-11
-5.41364e-12
-2.67682e-11
-4.71505e-11
-6.59893e-11
-7.82985e-11
-9.60823e-11
-6.51566e-11
1.36525e-10
2.40008e-10
2.16379e-10
2.03307e-10
1.86835e-10
1.66524e-10
1.45593e-10
1.2442e-10
1.03079e-10
8.16217e-11
6.00226e-11
3.82406e-11
1.62947e-11
-5.61775e-12
-2.71505e-11
-4.78094e-11
-6.69391e-11
-8.01769e-11
-9.4304e-11
-6.3622e-11
1.40745e-10
2.47246e-10
2.27217e-10
2.09658e-10
1.90401e-10
1.68632e-10
1.46794e-10
1.25107e-10
1.03475e-10
8.18395e-11
6.01171e-11
3.82284e-11
1.61588e-11
-5.93975e-12
-2.77845e-11
-4.89995e-11
-6.90486e-11
-8.44244e-11
-9.89379e-11
-6.7159e-11
)
;

boundaryField
{
    top
    {
        type            zeroGradient;
    }
    bottom
    {
        type            zeroGradient;
    }
    inlet
    {
        type            fixedValue;
        value           uniform 0;
    }
    outlet
    {
        type            fixedValue;
        value           uniform 0;
    }
    frontAndBack
    {
        type            empty;
    }
}


// ************************************************************************* //
