/*--------------------------------*- C++ -*----------------------------------*\
  =========                 |
  \\      /  F ield         | OpenFOAM: The Open Source CFD Toolbox
   \\    /   O peration     | Website:  https://openfoam.org
    \\  /    A nd           | Version:  9
     \\/     M anipulation  |
\*---------------------------------------------------------------------------*/
FoamFile
{
    format      ascii;
    class       surfaceScalarField;
    location    "3.8";
    object      phi;
}
// * * * * * * * * * * * * * * * * * * * * * * * * * * * * * * * * * * * * * //

dimensions      [0 3 -1 0 0 0 0];

internalField   nonuniform List<scalar> 
760
(
1.25e-06
-8.60471e-16
1.25e-06
-7.1608e-16
1.25e-06
-3.41069e-16
1.25e-06
-1.93962e-16
1.25e-06
-1.11341e-16
1.25e-06
-6.11908e-17
1.25e-06
-3.35356e-17
1.25e-06
-1.7562e-17
1.25e-06
-8.57427e-18
1.25e-06
-3.90557e-18
1.25e-06
-1.46725e-18
1.25e-06
3.17285e-20
1.25e-06
1.41047e-18
1.25e-06
3.64658e-18
1.25e-06
8.64309e-18
1.25e-06
2.1828e-17
1.25e-06
5.20486e-17
1.25e-06
1.16338e-16
1.25e-06
3.66527e-16
4.23074e-16
3.75e-06
-2.07142e-15
3.75e-06
-1.94109e-15
3.75e-06
-1.10981e-15
3.75e-06
-6.60516e-16
3.75e-06
-3.89791e-16
3.75e-06
-2.21791e-16
3.75e-06
-1.23889e-16
3.75e-06
-6.6704e-17
3.75e-06
-3.39402e-17
3.75e-06
-1.58419e-17
3.75e-06
-5.90927e-18
3.75e-06
7.06214e-20
3.75e-06
5.26042e-18
3.75e-06
1.34091e-17
3.75e-06
3.12179e-17
3.75e-06
7.4157e-17
3.75e-06
1.6997e-16
3.75e-06
3.64946e-16
3.75e-06
8.89458e-16
9.40004e-16
6.25e-06
-3.15054e-15
6.25e-06
-3.16081e-15
6.25e-06
-2.00927e-15
6.25e-06
-1.24425e-15
6.25e-06
-7.53978e-16
6.25e-06
-4.3941e-16
6.25e-06
-2.49375e-16
6.25e-06
-1.36401e-16
6.25e-06
-7.07331e-17
6.25e-06
-3.36595e-17
6.25e-06
-1.30091e-17
6.25e-06
-7.21682e-19
6.25e-06
9.47287e-18
6.25e-06
2.4805e-17
6.25e-06
5.74579e-17
6.25e-06
1.32656e-16
6.25e-06
2.94569e-16
6.25e-06
6.09302e-16
6.25e-06
1.29061e-15
1.29157e-15
8.75e-06
-3.95854e-15
8.75e-06
-4.12299e-15
8.75e-06
-2.80639e-15
8.75e-06
-1.80076e-15
8.75e-06
-1.11757e-15
8.75e-06
-6.6425e-16
8.75e-06
-3.82163e-16
8.75e-06
-2.11525e-16
8.75e-06
-1.11024e-16
8.75e-06
-5.35896e-17
8.75e-06
-2.14713e-17
8.75e-06
-2.74812e-18
8.75e-06
1.18785e-17
8.75e-06
3.26656e-17
8.75e-06
7.59983e-17
8.75e-06
1.73108e-16
8.75e-06
3.76939e-16
8.75e-06
7.53739e-16
8.75e-06
1.47404e-15
1.42959e-15
1.125e-05
-4.41295e-15
1.125e-05
-4.69891e-15
1.125e-05
-3.35741e-15
1.125e-05
-2.21869e-15
1.125e-05
-1.40618e-15
1.125e-05
-8.49821e-16
1.125e-05
-4.94669e-16
1.125e-05
-2.76226e-16
1.125e-05
-1.46096e-16
1.125e-05
-7.11943e-17
1.125e-05
-2.94494e-17
1.125e-05
-5.9253e-18
1.125e-05
1.08521e-17
1.125e-05
3.28633e-17
1.125e-05
7.81635e-17
1.125e-05
1.78966e-16
1.125e-05
3.87935e-16
1.125e-05
7.58848e-16
1.125e-05
1.41506e-15
1.34128e-15
1.375e-05
-4.49181e-15
1.375e-05
-4.84478e-15
1.375e-05
-3.58671e-15
1.375e-05
-2.42766e-15
1.375e-05
-1.56644e-15
1.375e-05
-9.60071e-16
1.375e-05
-5.64174e-16
1.375e-05
-3.16928e-16
1.375e-05
-1.68205e-16
1.375e-05
-8.23171e-17
1.375e-05
-3.49797e-17
1.375e-05
-9.73544e-18
1.375e-05
5.70587e-18
1.375e-05
2.32819e-17
1.375e-05
5.98115e-17
1.375e-05
1.43424e-16
1.375e-05
3.19301e-16
1.375e-05
6.21905e-16
1.375e-05
1.13626e-15
1.05055e-15
1.625e-05
-4.21002e-15
1.625e-05
-4.56939e-15
1.625e-05
-3.4741e-15
1.625e-05
-2.39663e-15
1.625e-05
-1.57005e-15
1.625e-05
-9.73565e-16
1.625e-05
-5.76213e-16
1.625e-05
-3.24547e-16
1.625e-05
-1.71965e-16
1.625e-05
-8.39088e-17
1.625e-05
-3.64462e-17
1.625e-05
-1.33993e-17
1.625e-05
-3.24525e-18
1.625e-05
4.08062e-18
1.625e-05
2.14761e-17
1.625e-05
6.89013e-17
1.625e-05
1.78862e-16
1.625e-05
3.64931e-16
1.625e-05
6.82676e-16
5.98099e-16
1.875e-05
-3.61314e-15
1.875e-05
-3.92126e-15
1.875e-05
-3.0423e-15
1.875e-05
-2.13061e-15
1.875e-05
-1.41406e-15
1.875e-05
-8.85363e-16
1.875e-05
-5.26382e-16
1.875e-05
-2.95932e-16
1.875e-05
-1.55324e-16
1.875e-05
-7.46887e-17
1.875e-05
-3.29663e-17
1.875e-05
-1.61003e-17
1.875e-05
-1.48483e-17
1.875e-05
-2.25642e-17
1.875e-05
-3.23237e-17
1.875e-05
-3.51123e-17
1.875e-05
-1.41413e-17
1.875e-05
2.41944e-17
1.875e-05
1.12554e-16
3.65615e-17
2.125e-05
-2.76747e-15
2.125e-05
-2.97638e-15
2.125e-05
-2.34763e-15
2.125e-05
-1.66494e-15
2.125e-05
-1.11891e-15
2.125e-05
-7.06669e-16
2.125e-05
-4.20695e-16
2.125e-05
-2.34282e-16
2.125e-05
-1.1995e-16
2.125e-05
-5.54141e-17
2.125e-05
-2.46235e-17
2.125e-05
-1.72312e-17
2.125e-05
-2.74302e-17
2.125e-05
-5.30458e-17
2.125e-05
-9.43272e-17
2.125e-05
-1.54569e-16
2.125e-05
-2.34006e-16
2.125e-05
-3.56941e-16
2.125e-05
-5.11504e-16
-5.77177e-16
2.375e-05
-1.75536e-15
2.375e-05
-1.83102e-15
2.375e-05
-1.47127e-15
2.375e-05
-1.05892e-15
2.375e-05
-7.24321e-16
2.375e-05
-4.62522e-16
2.375e-05
-2.7436e-16
2.375e-05
-1.48573e-16
2.375e-05
-7.09895e-17
2.375e-05
-2.8814e-17
2.375e-05
-1.25365e-17
2.375e-05
-1.65395e-17
2.375e-05
-3.91516e-17
2.375e-05
-8.30541e-17
2.375e-05
-1.55957e-16
2.375e-05
-2.73423e-16
2.375e-05
-4.52697e-16
2.375e-05
-7.33749e-16
2.375e-05
-1.12728e-15
-1.18543e-15
2.625e-05
-6.69442e-16
2.625e-05
-5.94986e-16
2.625e-05
-5.11423e-16
2.625e-05
-3.88442e-16
2.625e-05
-2.83656e-16
2.625e-05
-1.87948e-16
2.625e-05
-1.09268e-16
2.625e-05
-5.20283e-17
2.625e-05
-1.61385e-17
2.625e-05
8.66507e-19
2.625e-05
1.32683e-18
2.625e-05
-1.42287e-17
2.625e-05
-4.83265e-17
2.625e-05
-1.08338e-16
2.625e-05
-2.08679e-16
2.625e-05
-3.75991e-16
2.625e-05
-6.43332e-16
2.625e-05
-1.06426e-15
2.625e-05
-1.67685e-15
-1.73357e-15
2.875e-05
3.92499e-16
2.875e-05
6.14379e-16
2.875e-05
4.24545e-16
2.875e-05
2.62193e-16
2.875e-05
1.42994e-16
2.875e-05
7.72432e-17
2.875e-05
4.95159e-17
2.875e-05
4.01777e-17
2.875e-05
3.57209e-17
2.875e-05
2.86799e-17
2.875e-05
1.45733e-17
2.875e-05
-1.08338e-17
2.875e-05
-5.37487e-17
2.875e-05
-1.25303e-16
2.875e-05
-2.45225e-16
2.875e-05
-4.48875e-16
2.875e-05
-7.82923e-16
2.875e-05
-1.31251e-15
2.875e-05
-2.10942e-15
-2.17262e-15
3.125e-05
1.3325e-15
3.125e-05
1.67823e-15
3.125e-05
1.22865e-15
3.125e-05
8.09349e-16
3.125e-05
4.96872e-16
3.125e-05
2.94562e-16
3.125e-05
1.78045e-16
3.125e-05
1.13673e-16
3.125e-05
7.62381e-17
3.125e-05
4.99809e-17
3.125e-05
2.48283e-17
3.125e-05
-7.13497e-18
3.125e-05
-5.47447e-17
3.125e-05
-1.31536e-16
3.125e-05
-2.60506e-16
3.125e-05
-4.82566e-16
3.125e-05
-8.54596e-16
3.125e-05
-1.451e-15
3.125e-05
-2.38364e-15
-2.46184e-15
3.375e-05
2.05901e-15
3.375e-05
2.48365e-15
3.375e-05
1.80203e-15
3.375e-05
1.18067e-15
3.375e-05
7.29333e-16
3.375e-05
4.33418e-16
3.375e-05
2.57857e-16
3.375e-05
1.57698e-16
3.375e-05
9.9301e-17
3.375e-05
6.13714e-17
3.375e-05
3.03609e-17
3.375e-05
-3.82195e-18
3.375e-05
-5.12609e-17
3.375e-05
-1.26196e-16
3.375e-05
-2.52393e-16
3.375e-05
-4.72546e-16
3.375e-05
-8.49356e-16
3.375e-05
-1.46296e-15
3.375e-05
-2.46988e-15
-2.57098e-15
3.625e-05
2.49138e-15
3.625e-05
2.93183e-15
3.625e-05
2.06772e-15
3.625e-05
1.32654e-15
3.625e-05
8.11052e-16
3.625e-05
4.77231e-16
3.625e-05
2.8e-16
3.625e-05
1.675e-16
3.625e-05
1.02438e-16
3.625e-05
6.16054e-17
3.625e-05
3.04688e-17
3.625e-05
-1.41312e-18
3.625e-05
-4.38433e-17
3.625e-05
-1.10074e-16
3.625e-05
-2.22087e-16
3.625e-05
-4.20199e-16
3.625e-05
-7.67495e-16
3.625e-05
-1.34465e-15
3.625e-05
-2.35256e-15
-2.48225e-15
3.875e-05
2.57261e-15
3.875e-05
2.95305e-15
3.875e-05
1.98575e-15
3.875e-05
1.23352e-15
3.875e-05
7.4013e-16
3.875e-05
4.28435e-16
3.875e-05
2.47579e-16
3.875e-05
1.45759e-16
3.875e-05
8.75965e-17
3.875e-05
5.18993e-17
3.875e-05
2.56961e-17
3.875e-05
-5.5202e-20
3.875e-05
-3.35956e-17
3.875e-05
-8.565e-17
3.875e-05
-1.74209e-16
3.875e-05
-3.33201e-16
3.875e-05
-6.19977e-16
3.875e-05
-1.10796e-15
3.875e-05
-2.03453e-15
-2.19421e-15
4.125e-05
2.27357e-15
4.125e-05
2.52228e-15
4.125e-05
1.57572e-15
4.125e-05
9.36112e-16
4.125e-05
5.48413e-16
4.125e-05
3.10426e-16
4.125e-05
1.76348e-16
4.125e-05
1.02446e-16
4.125e-05
6.08783e-17
4.125e-05
3.5799e-17
4.125e-05
1.77969e-17
4.125e-05
4.35828e-19
4.125e-05
-2.20358e-17
4.125e-05
-5.69589e-17
4.125e-05
-1.16697e-16
4.125e-05
-2.25712e-16
4.125e-05
-4.29303e-16
4.125e-05
-7.83968e-16
4.125e-05
-1.54194e-15
-1.72501e-15
4.375e-05
1.62701e-15
4.375e-05
1.70274e-15
4.375e-05
9.40854e-16
4.375e-05
5.28133e-16
4.375e-05
3.01215e-16
4.375e-05
1.6559e-16
4.375e-05
9.21868e-17
4.375e-05
5.29661e-17
4.375e-05
3.12851e-17
4.375e-05
1.84162e-17
4.375e-05
9.2765e-18
4.375e-05
4.62471e-19
4.375e-05
-1.11173e-17
4.375e-05
-2.92263e-17
4.375e-05
-6.02692e-17
4.375e-05
-1.17855e-16
4.375e-05
-2.30559e-16
4.375e-05
-4.28061e-16
4.375e-05
-9.38243e-16
-1.12269e-15
4.625e-05
7.19002e-16
4.625e-05
6.89393e-16
4.625e-05
3.07531e-16
4.625e-05
1.58214e-16
4.625e-05
8.86179e-17
4.625e-05
4.64585e-17
4.625e-05
2.51621e-17
4.625e-05
1.43415e-17
4.625e-05
8.49661e-18
4.625e-05
5.09017e-18
4.625e-05
2.70535e-18
4.625e-05
3.20632e-19
4.625e-05
-3.03366e-18
4.625e-05
-8.35156e-18
4.625e-05
-1.73381e-17
4.625e-05
-3.42745e-17
4.625e-05
-6.98831e-17
4.625e-05
-1.29223e-16
4.625e-05
-3.43123e-16
-4.64713e-16
4.875e-05
4.875e-05
4.875e-05
4.875e-05
4.875e-05
4.875e-05
4.875e-05
4.875e-05
4.875e-05
4.875e-05
4.875e-05
4.875e-05
4.875e-05
4.875e-05
4.875e-05
4.875e-05
4.875e-05
4.875e-05
4.875e-05
)
;

boundaryField
{
    top
    {
        type            calculated;
        value           uniform 0;
    }
    bottom
    {
        type            calculated;
        value           uniform 0;
    }
    inlet
    {
        type            calculated;
        value           nonuniform List<scalar> 
20
(
-1.25e-06
-3.75e-06
-6.25e-06
-8.75e-06
-1.125e-05
-1.375e-05
-1.625e-05
-1.875e-05
-2.125e-05
-2.375e-05
-2.625e-05
-2.875e-05
-3.125e-05
-3.375e-05
-3.625e-05
-3.875e-05
-4.125e-05
-4.375e-05
-4.625e-05
-4.875e-05
)
;
    }
    outlet
    {
        type            calculated;
        value           nonuniform List<scalar> 
20
(
1.25e-06
3.75e-06
6.25e-06
8.75e-06
1.125e-05
1.375e-05
1.625e-05
1.875e-05
2.125e-05
2.375e-05
2.625e-05
2.875e-05
3.125e-05
3.375e-05
3.625e-05
3.875e-05
4.125e-05
4.375e-05
4.625e-05
4.875e-05
)
;
    }
    frontAndBack
    {
        type            empty;
        value           nonuniform List<scalar> 0();
    }
}


// ************************************************************************* //
