/*--------------------------------*- C++ -*----------------------------------*\
  =========                 |
  \\      /  F ield         | OpenFOAM: The Open Source CFD Toolbox
   \\    /   O peration     | Website:  https://openfoam.org
    \\  /    A nd           | Version:  9
     \\/     M anipulation  |
\*---------------------------------------------------------------------------*/
FoamFile
{
    format      ascii;
    class       volVectorField;
    location    "3.8";
    object      U;
}
// * * * * * * * * * * * * * * * * * * * * * * * * * * * * * * * * * * * * * //

dimensions      [0 1 -1 0 0 0 0];

internalField   nonuniform List<vector> 
400
(
(0.025 -4.21183e-12 0)
(0.025 -3.37019e-12 0)
(0.025 -1.41842e-12 0)
(0.025 -7.56622e-13 0)
(0.025 -4.17741e-13 0)
(0.025 -2.21571e-13 0)
(0.025 -1.19488e-13 0)
(0.025 -5.98049e-14 0)
(0.025 -2.69632e-14 0)
(0.025 -1.14968e-14 0)
(0.025 -4.14581e-15 0)
(0.025 6.12032e-16 0)
(0.025 5.56121e-15 0)
(0.025 1.399e-14 0)
(0.025 3.33751e-14 0)
(0.025 8.85776e-14 0)
(0.025 2.20859e-13 0)
(0.025 5.25811e-13 0)
(0.025 1.84898e-12 0)
(0.025 2.1671e-12 0)
(0.075 -1.45002e-11 0)
(0.075 -1.28923e-11 0)
(0.075 -6.73252e-12 0)
(0.075 -3.86528e-12 0)
(0.075 -2.23269e-12 0)
(0.075 -1.24147e-12 0)
(0.075 -6.826e-13 0)
(0.075 -3.61042e-13 0)
(0.075 -1.79042e-13 0)
(0.075 -8.12559e-14 0)
(0.075 -2.89176e-14 0)
(0.075 2.73719e-15 0)
(0.075 3.12768e-14 0)
(0.075 7.7796e-14 0)
(0.075 1.82159e-13 0)
(0.075 4.45496e-13 0)
(0.075 1.04729e-12 0)
(0.075 2.32974e-12 0)
(0.075 6.3243e-12 0)
(0.075 6.94173e-12 0)
(0.125 -2.6369e-11 0)
(0.125 -2.56081e-11 0)
(0.125 -1.54674e-11 0)
(0.125 -9.35867e-12 0)
(0.125 -5.58238e-12 0)
(0.125 -3.21004e-12 0)
(0.125 -1.80518e-12 0)
(0.125 -9.78258e-13 0)
(0.125 -5.01951e-13 0)
(0.125 -2.36332e-13 0)
(0.125 -8.93513e-14 0)
(0.125 -7.91198e-16 0)
(0.125 7.53864e-14 0)
(0.125 1.93375e-13 0)
(0.125 4.47965e-13 0)
(0.125 1.04638e-12 0)
(0.125 2.3574e-12 0)
(0.125 4.974e-12 0)
(0.125 1.11902e-11 0)
(0.125 1.15089e-11 0)
(0.175 -3.62823e-11 0)
(0.175 -3.71074e-11 0)
(0.175 -2.44685e-11 0)
(0.175 -1.54124e-11 0)
(0.175 -9.44145e-12 0)
(0.175 -5.55157e-12 0)
(0.175 -3.16945e-12 0)
(0.175 -1.7435e-12 0)
(0.175 -9.0998e-13 0)
(0.175 -4.36269e-13 0)
(0.175 -1.71304e-13 0)
(0.175 -1.43839e-14 0)
(0.175 1.13386e-13 0)
(0.175 3.01532e-13 0)
(0.175 6.97461e-13 0)
(0.175 1.59374e-12 0)
(0.175 3.49497e-12 0)
(0.175 7.09435e-12 0)
(0.175 1.43272e-11 0)
(0.175 1.41355e-11 0)
(0.225 -4.27839e-11 0)
(0.225 -4.50856e-11 0)
(0.225 -3.15243e-11 0)
(0.225 -2.0535e-11 0)
(0.225 -1.2876e-11 0)
(0.225 -7.7158e-12 0)
(0.225 -4.4645e-12 0)
(0.225 -2.48275e-12 0)
(0.225 -1.30922e-12 0)
(0.225 -6.35654e-13 0)
(0.225 -2.58718e-13 0)
(0.225 -4.12906e-14 0)
(0.225 1.23252e-13 0)
(0.225 3.4998e-13 0)
(0.225 8.17855e-13 0)
(0.225 1.85638e-12 0)
(0.225 4.01305e-12 0)
(0.225 7.90894e-12 0)
(0.225 1.49926e-11 0)
(0.225 1.43975e-11 0)
(0.275 -4.54545e-11 0)
(0.275 -4.8745e-11 0)
(0.275 -3.55467e-11 0)
(0.275 -2.37976e-11 0)
(0.275 -1.52243e-11 0)
(0.275 -9.26888e-12 0)
(0.275 -5.42293e-12 0)
(0.275 -3.03931e-12 0)
(0.275 -1.6122e-12 0)
(0.275 -7.88634e-13 0)
(0.275 -3.30953e-13 0)
(0.275 -7.80394e-14 0)
(0.275 9.26302e-14 0)
(0.275 3.05169e-13 0)
(0.275 7.40836e-13 0)
(0.275 1.71238e-12 0)
(0.275 3.72349e-12 0)
(0.275 7.22478e-12 0)
(0.275 1.32266e-11 0)
(0.275 1.2418e-11 0)
(0.325 -4.43607e-11 0)
(0.325 -4.80296e-11 0)
(0.325 -3.61252e-11 0)
(0.325 -2.47195e-11 0)
(0.325 -1.60835e-11 0)
(0.325 -9.92179e-12 0)
(0.325 -5.85543e-12 0)
(0.325 -3.29709e-12 0)
(0.325 -1.75138e-12 0)
(0.325 -8.57953e-13 0)
(0.325 -3.69314e-13 0)
(0.325 -1.17655e-13 0)
(0.325 1.99727e-14 0)
(0.325 1.57818e-13 0)
(0.325 4.50268e-13 0)
(0.325 1.14592e-12 0)
(0.325 2.64247e-12 0)
(0.325 5.18098e-12 0)
(0.325 9.44173e-12 0)
(0.325 8.58345e-12 0)
(0.375 -3.98265e-11 0)
(0.375 -4.32642e-11 0)
(0.375 -3.33063e-11 0)
(0.375 -2.3185e-11 0)
(0.375 -1.53009e-11 0)
(0.375 -9.54144e-12 0)
(0.375 -5.66529e-12 0)
(0.375 -3.19265e-12 0)
(0.375 -1.68781e-12 0)
(0.375 -8.20694e-13 0)
(0.375 -3.60397e-13 0)
(0.375 -1.51439e-13 0)
(0.375 -8.66039e-14 0)
(0.375 -7.90589e-14 0)
(0.375 -2.57497e-14 0)
(0.375 2.23098e-13 0)
(0.375 9.18567e-13 0)
(0.375 2.09386e-12 0)
(0.375 4.17953e-12 0)
(0.375 3.37608e-12 0)
(0.425 -3.24263e-11 0)
(0.425 -3.5092e-11 0)
(0.425 -2.7505e-11 0)
(0.425 -1.94094e-11 0)
(0.425 -1.29706e-11 0)
(0.425 -8.16193e-12 0)
(0.425 -4.86137e-12 0)
(0.425 -2.7262e-12 0)
(0.425 -1.41927e-12 0)
(0.425 -6.73854e-13 0)
(0.425 -2.99773e-13 0)
(0.425 -1.71712e-13 0)
(0.425 -2.12047e-13 0)
(0.425 -3.74792e-13 0)
(0.425 -6.24845e-13 0)
(0.425 -9.32048e-13 0)
(0.425 -1.21251e-12 0)
(0.425 -1.62368e-12 0)
(0.425 -1.94044e-12 0)
(0.425 -2.64394e-12 0)
(0.475 -2.29158e-11 0)
(0.475 -2.43908e-11 0)
(0.475 -1.94284e-11 0)
(0.475 -1.38824e-11 0)
(0.475 -9.40507e-12 0)
(0.475 -5.97189e-12 0)
(0.475 -3.55421e-12 0)
(0.475 -1.96117e-12 0)
(0.475 -9.81193e-13 0)
(0.475 -4.35507e-13 0)
(0.475 -1.93614e-13 0)
(0.475 -1.73865e-13 0)
(0.475 -3.37883e-13 0)
(0.475 -6.87937e-13 0)
(0.475 -1.26434e-12 0)
(0.475 -2.16292e-12 0)
(0.475 -3.47289e-12 0)
(0.475 -5.51946e-12 0)
(0.475 -8.28374e-12 0)
(0.475 -8.89499e-12 0)
(0.525 -1.21847e-11 0)
(0.525 -1.22077e-11 0)
(0.525 -9.99291e-12 0)
(0.525 -7.29938e-12 0)
(0.525 -5.08544e-12 0)
(0.525 -3.283e-12 0)
(0.525 -1.93691e-12 0)
(0.525 -1.01334e-12 0)
(0.525 -4.40667e-13 0)
(0.525 -1.42134e-13 0)
(0.525 -5.80701e-14 0)
(0.525 -1.57692e-13 0)
(0.525 -4.45777e-13 0)
(0.525 -9.73967e-13 0)
(0.525 -1.85549e-12 0)
(0.525 -3.30562e-12 0)
(0.525 -5.58031e-12 0)
(0.525 -9.15101e-12 0)
(0.525 -1.42408e-11 0)
(0.525 -1.48068e-11 0)
(0.575 -1.19796e-12 0)
(0.575 3.0587e-13 0)
(0.575 -2.47043e-13 0)
(0.575 -4.82562e-13 0)
(0.575 -5.97743e-13 0)
(0.575 -4.83628e-13 0)
(0.575 -2.5411e-13 0)
(0.575 -3.10955e-14 0)
(0.575 1.15448e-13 0)
(0.575 1.57998e-13 0)
(0.575 8.38676e-14 0)
(0.575 -1.27199e-13 0)
(0.575 -5.20826e-13 0)
(0.575 -1.19228e-12 0)
(0.575 -2.31662e-12 0)
(0.575 -4.21048e-12 0)
(0.575 -7.2794e-12 0)
(0.575 -1.21215e-11 0)
(0.575 -1.92614e-11 0)
(0.575 -1.9855e-11 0)
(0.625 9.05016e-12 0)
(0.625 1.19513e-11 0)
(0.625 8.70987e-12 0)
(0.625 5.70379e-12 0)
(0.625 3.44274e-12 0)
(0.625 2.01864e-12 0)
(0.625 1.23806e-12 0)
(0.625 8.30608e-13 0)
(0.625 5.96567e-13 0)
(0.625 4.14335e-13 0)
(0.625 2.06967e-13 0)
(0.625 -8.95337e-14 0)
(0.625 -5.53441e-13 0)
(0.625 -1.31188e-12 0)
(0.625 -2.58403e-12 0)
(0.625 -4.75969e-12 0)
(0.625 -8.36607e-12 0)
(0.625 -1.41077e-11 0)
(0.625 -2.28786e-11 0)
(0.625 -2.35846e-11 0)
(0.675 1.75992e-11 0)
(0.675 2.15512e-11 0)
(0.675 1.58167e-11 0)
(0.675 1.04529e-11 0)
(0.675 6.47636e-12 0)
(0.675 3.86221e-12 0)
(0.675 2.3167e-12 0)
(0.675 1.43935e-12 0)
(0.675 9.26273e-13 0)
(0.675 5.8425e-13 0)
(0.675 2.89379e-13 0)
(0.675 -5.26298e-14 0)
(0.675 -5.40042e-13 0)
(0.675 -1.31599e-12 0)
(0.675 -2.6204e-12 0)
(0.675 -4.88089e-12 0)
(0.675 -8.70737e-12 0)
(0.675 -1.48832e-11 0)
(0.675 -2.47324e-11 0)
(0.675 -2.56356e-11 0)
(0.725 2.35688e-11 0)
(0.725 2.80216e-11 0)
(0.725 2.01633e-11 0)
(0.725 1.3125e-11 0)
(0.725 8.09169e-12 0)
(0.725 4.7968e-12 0)
(0.725 2.83609e-12 0)
(0.725 1.71246e-12 0)
(0.725 1.05874e-12 0)
(0.725 6.4289e-13 0)
(0.725 3.18032e-13 0)
(0.725 -2.30088e-14 0)
(0.725 -4.83275e-13 0)
(0.725 -1.20425e-12 0)
(0.725 -2.42062e-12 0)
(0.725 -4.55717e-12 0)
(0.725 -8.25689e-12 0)
(0.725 -1.43406e-11 0)
(0.725 -2.459e-11 0)
(0.725 -2.57624e-11 0)
(0.775 2.62496e-11 0)
(0.775 3.04771e-11 0)
(0.775 2.11124e-11 0)
(0.775 1.33701e-11 0)
(0.775 8.11212e-12 0)
(0.775 4.74144e-12 0)
(0.775 2.7619e-12 0)
(0.775 1.6373e-12 0)
(0.775 9.90296e-13 0)
(0.775 5.89613e-13 0)
(0.775 2.9183e-13 0)
(0.775 -4.212e-15 0)
(0.775 -3.9155e-13 0)
(0.775 -9.93148e-13 0)
(0.775 -2.01367e-12 0)
(0.775 -3.83274e-12 0)
(0.775 -7.06716e-12 0)
(0.775 -1.25098e-11 0)
(0.775 -2.23727e-11 0)
(0.775 -2.38595e-11 0)
(0.825 2.5103e-11 0)
(0.825 2.83138e-11 0)
(0.825 1.84696e-11 0)
(0.825 1.12433e-11 0)
(0.825 6.66807e-12 0)
(0.825 3.81885e-12 0)
(0.825 2.1875e-12 0)
(0.825 1.27769e-12 0)
(0.825 7.62008e-13 0)
(0.825 4.48843e-13 0)
(0.825 2.2273e-13 0)
(0.825 4.2595e-15 0)
(0.825 -2.77774e-13 0)
(0.825 -7.14999e-13 0)
(0.825 -1.46159e-12 0)
(0.825 -2.81414e-12 0)
(0.825 -5.29691e-12 0)
(0.825 -9.58061e-12 0)
(0.825 -1.8171e-11 0)
(0.825 -1.99617e-11 0)
(0.875 2.00486e-11 0)
(0.875 2.16276e-11 0)
(0.875 1.27998e-11 0)
(0.875 7.38559e-12 0)
(0.875 4.26096e-12 0)
(0.875 2.37577e-12 0)
(0.875 1.33474e-12 0)
(0.875 7.6978e-13 0)
(0.875 4.54954e-13 0)
(0.875 2.66831e-13 0)
(0.875 1.33186e-13 0)
(0.875 5.12075e-15 0)
(0.875 -1.61176e-13 0)
(0.875 -4.20123e-13 0)
(0.875 -8.6328e-13 0)
(0.875 -1.67972e-12 0)
(0.875 -3.24249e-12 0)
(0.875 -5.98902e-12 0)
(0.875 -1.24092e-11 0)
(0.875 -1.43443e-11 0)
(0.925 1.19034e-11 0)
(0.925 1.19864e-11 0)
(0.925 6.02003e-12 0)
(0.925 3.19606e-12 0)
(0.925 1.78472e-12 0)
(0.925 9.54572e-13 0)
(0.925 5.21605e-13 0)
(0.925 2.97236e-13 0)
(0.925 1.7532e-13 0)
(0.925 1.0388e-13 0)
(0.925 5.34582e-14 0)
(0.925 4.10846e-15 0)
(0.925 -6.25788e-14 0)
(0.925 -1.67762e-13 0)
(0.925 -3.48118e-13 0)
(0.925 -6.87226e-13 0)
(0.925 -1.37552e-12 0)
(0.925 -2.57949e-12 0)
(0.925 -6.20029e-12 0)
(0.925 -7.82202e-12 0)
(0.975 3.6776e-12 0)
(0.975 3.43852e-12 0)
(0.975 1.37411e-12 0)
(0.975 6.39678e-13 0)
(0.975 3.4352e-13 0)
(0.975 1.71176e-13 0)
(0.975 8.96551e-14 0)
(0.975 5.05369e-14 0)
(0.975 2.98369e-14 0)
(0.975 1.78133e-14 0)
(0.975 9.41587e-15 0)
(0.975 6.12756e-16 0)
(0.975 -1.277e-14 0)
(0.975 -3.43758e-14 0)
(0.975 -6.96119e-14 0)
(0.975 -1.36883e-13 0)
(0.975 -2.88208e-13 0)
(0.975 -5.41141e-13 0)
(0.975 -1.61531e-12 0)
(0.975 -2.25711e-12 0)
)
;

boundaryField
{
    top
    {
        type            fixedValue;
        value           uniform (1 0 0);
    }
    bottom
    {
        type            fixedValue;
        value           uniform (0 0 0);
    }
    inlet
    {
        type            zeroGradient;
    }
    outlet
    {
        type            zeroGradient;
    }
    frontAndBack
    {
        type            empty;
    }
}


// ************************************************************************* //
