/*--------------------------------*- C++ -*----------------------------------*\
  =========                 |
  \\      /  F ield         | OpenFOAM: The Open Source CFD Toolbox
   \\    /   O peration     | Website:  https://openfoam.org
    \\  /    A nd           | Version:  9
     \\/     M anipulation  |
\*---------------------------------------------------------------------------*/
FoamFile
{
    format      ascii;
    class       volScalarField;
    location    "1.5";
    object      p;
}
// * * * * * * * * * * * * * * * * * * * * * * * * * * * * * * * * * * * * * //

dimensions      [0 2 -2 0 0 0 0];

internalField   nonuniform List<scalar> 
400
(
1.5348e-07
2.54364e-07
2.45963e-07
2.33955e-07
2.14239e-07
1.90891e-07
1.66567e-07
1.4182e-07
1.17063e-07
9.25028e-08
6.8029e-08
4.34838e-08
1.88116e-08
-5.97749e-09
-3.08577e-08
-5.58764e-08
-8.03906e-08
-1.02636e-07
-1.30725e-07
-8.25874e-08
1.45557e-07
2.42332e-07
2.33183e-07
2.26296e-07
2.09593e-07
1.88088e-07
1.64945e-07
1.40913e-07
1.16576e-07
9.22592e-08
6.79258e-08
4.34711e-08
1.88816e-08
-5.78221e-09
-3.04023e-08
-5.48948e-08
-7.83096e-08
-9.78623e-08
-1.2761e-07
-8.04697e-08
1.47169e-07
2.43393e-07
2.26051e-07
2.21376e-07
2.06287e-07
1.85903e-07
1.63598e-07
1.40115e-07
1.16115e-07
9.19985e-08
6.77868e-08
4.34172e-08
1.89058e-08
-5.65506e-09
-3.00908e-08
-5.42857e-08
-7.72556e-08
-9.55547e-08
-1.3172e-07
-8.3431e-08
1.52819e-07
2.54003e-07
2.2455e-07
2.19299e-07
2.04499e-07
1.84486e-07
1.62621e-07
1.39476e-07
1.15701e-07
9.17271e-08
6.76126e-08
4.3317e-08
1.88695e-08
-5.62588e-09
-2.99802e-08
-5.41325e-08
-7.72622e-08
-9.57227e-08
-1.40031e-07
-8.80129e-08
1.59008e-07
2.687e-07
2.25961e-07
2.18826e-07
2.03624e-07
1.83547e-07
1.61875e-07
1.38926e-07
1.15302e-07
9.14389e-08
6.74085e-08
4.31787e-08
1.87803e-08
-5.68176e-09
-3.003e-08
-5.42939e-08
-7.79053e-08
-9.7084e-08
-1.49326e-07
-9.23669e-08
1.64723e-07
2.84582e-07
2.2882e-07
2.19222e-07
2.03296e-07
1.82897e-07
1.6126e-07
1.38422e-07
1.14907e-07
9.11353e-08
6.7181e-08
4.30098e-08
1.86482e-08
-5.8034e-09
-3.019e-08
-5.46401e-08
-7.88519e-08
-9.88636e-08
-1.57852e-07
-9.59094e-08
1.69763e-07
3.0004e-07
2.32285e-07
2.20039e-07
2.03261e-07
1.82407e-07
1.6071e-07
1.37937e-07
1.14509e-07
9.08206e-08
6.69375e-08
4.28195e-08
1.84858e-08
-5.96767e-09
-3.04106e-08
-5.50561e-08
-7.98611e-08
-1.00591e-07
-1.64716e-07
-9.85381e-08
1.73931e-07
3.13756e-07
2.35678e-07
2.20883e-07
2.03288e-07
1.81962e-07
1.60171e-07
1.37445e-07
1.14103e-07
9.04978e-08
6.66853e-08
4.26183e-08
1.83097e-08
-6.14581e-09
-3.06358e-08
-5.54311e-08
-8.07138e-08
-1.01913e-07
-1.69295e-07
-1.00155e-07
1.771e-07
3.24704e-07
2.38449e-07
2.21447e-07
2.03199e-07
1.81472e-07
1.59603e-07
1.36936e-07
1.13687e-07
9.01717e-08
6.64327e-08
4.24185e-08
1.81387e-08
-6.30661e-09
-3.08112e-08
-5.56667e-08
-8.12341e-08
-1.02571e-07
-1.7124e-07
-1.00732e-07
1.79176e-07
3.32135e-07
2.4022e-07
2.21537e-07
2.02886e-07
1.80895e-07
1.58996e-07
1.36409e-07
1.13269e-07
8.98508e-08
6.61892e-08
4.22324e-08
1.79909e-08
-6.42212e-09
-3.08918e-08
-5.56904e-08
-8.13002e-08
-1.02415e-07
-1.70418e-07
-1.00278e-07
1.80091e-07
3.3556e-07
2.40782e-07
2.21077e-07
2.02321e-07
1.80237e-07
1.58368e-07
1.35886e-07
1.12864e-07
8.95471e-08
6.5965e-08
4.20706e-08
1.78804e-08
-6.47233e-09
-3.08487e-08
-5.5463e-08
-8.08549e-08
-1.01398e-07
-1.66895e-07
-9.88355e-08
1.79785e-07
3.34741e-07
2.40088e-07
2.20103e-07
2.01548e-07
1.79545e-07
1.57762e-07
1.35397e-07
1.12495e-07
8.92752e-08
6.57702e-08
4.19412e-08
1.7815e-08
-6.44892e-09
-3.06747e-08
-5.49837e-08
-7.99064e-08
-9.95692e-08
-1.60899e-07
-9.64727e-08
1.78202e-07
3.29703e-07
2.38265e-07
2.18758e-07
2.00677e-07
1.78903e-07
1.57239e-07
1.34986e-07
1.12187e-07
8.9051e-08
6.56133e-08
4.18482e-08
1.7795e-08
-6.35748e-09
-3.03863e-08
-5.42926e-08
-7.853e-08
-9.70686e-08
-1.52808e-07
-9.32828e-08
1.75326e-07
3.20775e-07
2.35619e-07
2.17289e-07
1.9987e-07
1.78419e-07
1.5687e-07
1.34697e-07
1.11969e-07
8.88889e-08
6.55006e-08
4.17911e-08
1.78125e-08
-6.21773e-09
-3.00243e-08
-5.34702e-08
-7.68676e-08
-9.41258e-08
-1.43149e-07
-8.93937e-08
1.71163e-07
3.08633e-07
2.32654e-07
2.16026e-07
1.99327e-07
1.78205e-07
1.5672e-07
1.34568e-07
1.1186e-07
8.87991e-08
6.54347e-08
4.1765e-08
1.78523e-08
-6.06182e-09
-2.96507e-08
-5.26329e-08
-7.5121e-08
-9.10572e-08
-1.32595e-07
-8.49728e-08
1.65831e-07
2.9437e-07
2.30032e-07
2.15355e-07
1.9925e-07
1.78363e-07
1.56838e-07
1.34622e-07
1.11871e-07
8.87851e-08
6.54138e-08
4.17612e-08
1.78942e-08
-5.92997e-09
-2.93412e-08
-5.19211e-08
-7.35388e-08
-8.82473e-08
-1.21967e-07
-8.02388e-08
1.59419e-07
2.79488e-07
2.28609e-07
2.15665e-07
1.99828e-07
1.78964e-07
1.57245e-07
1.34861e-07
1.12e-07
8.88426e-08
6.54317e-08
4.17682e-08
1.79152e-08
-5.86612e-09
-2.91763e-08
-5.14875e-08
-7.24026e-08
-8.61603e-08
-1.12226e-07
-7.54275e-08
1.52861e-07
2.66927e-07
2.29831e-07
2.17571e-07
2.01302e-07
1.80096e-07
1.57964e-07
1.35288e-07
1.12243e-07
8.89665e-08
6.54813e-08
4.17728e-08
1.78881e-08
-5.92292e-09
-2.92522e-08
-5.15185e-08
-7.20965e-08
-8.55416e-08
-1.0497e-07
-7.11832e-08
1.49144e-07
2.6219e-07
2.36366e-07
2.22087e-07
2.04098e-07
1.81911e-07
1.59045e-07
1.35917e-07
1.12604e-07
8.91605e-08
6.55638e-08
4.17687e-08
1.77932e-08
-6.14517e-09
-2.96676e-08
-5.22349e-08
-7.31293e-08
-8.75854e-08
-1.0302e-07
-6.9503e-08
1.53763e-07
2.70116e-07
2.48246e-07
2.29057e-07
2.08011e-07
1.84225e-07
1.60364e-07
1.36671e-07
1.13039e-07
8.94e-08
6.56679e-08
4.17556e-08
1.76436e-08
-6.49982e-09
-3.03652e-08
-5.35444e-08
-7.54488e-08
-9.22516e-08
-1.08101e-07
-7.33741e-08
)
;

boundaryField
{
    top
    {
        type            zeroGradient;
    }
    bottom
    {
        type            zeroGradient;
    }
    inlet
    {
        type            fixedValue;
        value           uniform 0;
    }
    outlet
    {
        type            fixedValue;
        value           uniform 0;
    }
    frontAndBack
    {
        type            empty;
    }
}


// ************************************************************************* //
