/*--------------------------------*- C++ -*----------------------------------*\
  =========                 |
  \\      /  F ield         | OpenFOAM: The Open Source CFD Toolbox
   \\    /   O peration     | Website:  https://openfoam.org
    \\  /    A nd           | Version:  9
     \\/     M anipulation  |
\*---------------------------------------------------------------------------*/
FoamFile
{
    format      ascii;
    class       surfaceScalarField;
    location    "1.5";
    object      phi;
}
// * * * * * * * * * * * * * * * * * * * * * * * * * * * * * * * * * * * * * //

dimensions      [0 3 -1 0 0 0 0];

internalField   nonuniform List<scalar> 
760
(
1.24984e-06
-9.40011e-13
1.24984e-06
-7.82267e-13
1.24984e-06
-3.72636e-13
1.24984e-06
-2.11877e-13
1.24984e-06
-1.21619e-13
1.24984e-06
-6.68376e-14
1.24984e-06
-3.66258e-14
1.24984e-06
-1.9177e-14
1.24984e-06
-9.3594e-15
1.24984e-06
-4.25851e-15
1.24984e-06
-1.59507e-15
1.24984e-06
4.29484e-17
1.24984e-06
1.5481e-15
1.24984e-06
3.99061e-15
1.24984e-06
9.44788e-15
1.24984e-06
2.38461e-14
1.24984e-06
5.68556e-14
1.24984e-06
1.27166e-13
1.24984e-06
4.00419e-13
4.62221e-13
3.74951e-06
-2.26287e-12
3.74952e-06
-2.1205e-12
3.74952e-06
-1.21237e-12
3.74952e-06
-7.21533e-13
3.74952e-06
-4.25786e-13
3.74952e-06
-2.42264e-13
3.74952e-06
-1.35315e-13
3.74952e-06
-7.28455e-14
3.74952e-06
-3.70538e-14
3.74952e-06
-1.728e-14
3.74952e-06
-6.42712e-15
3.74952e-06
1.05674e-16
3.74952e-06
5.77853e-15
3.74952e-06
1.46818e-14
3.74952e-06
3.41371e-14
3.74952e-06
8.10427e-14
3.74952e-06
1.85711e-13
3.74952e-06
3.98741e-13
3.74952e-06
9.71747e-13
1.02697e-12
6.2492e-06
-3.44172e-12
6.24921e-06
-3.45294e-12
6.24921e-06
-2.19492e-12
6.24921e-06
-1.35918e-12
6.24921e-06
-8.23602e-13
6.24921e-06
-4.79969e-13
6.24921e-06
-2.72372e-13
6.24921e-06
-1.48957e-13
6.24921e-06
-7.72195e-14
6.24921e-06
-3.67136e-14
6.24921e-06
-1.41493e-14
6.24921e-06
-7.26469e-16
6.24921e-06
1.04158e-14
6.24921e-06
2.71681e-14
6.24921e-06
6.28416e-14
6.24921e-06
1.44988e-13
6.24921e-06
3.21864e-13
6.24921e-06
6.65708e-13
6.24921e-06
1.41003e-12
1.41108e-12
8.74892e-06
-4.32439e-12
8.74892e-06
-4.50402e-12
8.74892e-06
-3.06569e-12
8.74892e-06
-1.96709e-12
8.74892e-06
-1.22076e-12
8.74892e-06
-7.25553e-13
8.74892e-06
-4.17396e-13
8.74892e-06
-2.30986e-13
8.74892e-06
-1.21194e-13
8.74892e-06
-5.84468e-14
8.74892e-06
-2.33538e-14
8.74892e-06
-2.89621e-15
8.74892e-06
1.30876e-14
8.74892e-06
3.57993e-14
8.74892e-06
8.31397e-14
8.74892e-06
1.89221e-13
8.74892e-06
4.11891e-13
8.74892e-06
8.23535e-13
8.74892e-06
1.61046e-12
1.56189e-12
1.12487e-05
-4.82079e-12
1.12487e-05
-5.13315e-12
1.12487e-05
-3.66761e-12
1.12487e-05
-2.42362e-12
1.12487e-05
-1.53601e-12
1.12487e-05
-9.28233e-13
1.12487e-05
-5.40258e-13
1.12487e-05
-3.01625e-13
1.12487e-05
-1.59464e-13
1.12487e-05
-7.76324e-14
1.12487e-05
-3.20233e-14
1.12487e-05
-6.31831e-15
1.12487e-05
1.20135e-14
1.12487e-05
3.60631e-14
1.12487e-05
8.5549e-14
1.12487e-05
1.95664e-13
1.12487e-05
4.23945e-13
1.12487e-05
8.29154e-13
1.12487e-05
1.54605e-12
1.46543e-12
1.37484e-05
-4.90691e-12
1.37484e-05
-5.29248e-12
1.37484e-05
-3.91808e-12
1.37484e-05
-2.65187e-12
1.37484e-05
-1.71105e-12
1.37484e-05
-1.04863e-12
1.37484e-05
-6.16145e-13
1.37484e-05
-3.46046e-13
1.37484e-05
-1.83571e-13
1.37484e-05
-8.97336e-14
1.37484e-05
-3.80178e-14
1.37484e-05
-1.04333e-14
1.37484e-05
6.43734e-15
1.37484e-05
2.56401e-14
1.37484e-05
6.55445e-14
1.37484e-05
1.56878e-13
1.37484e-05
3.49004e-13
1.37484e-05
6.7958e-13
1.37484e-05
1.24149e-12
1.14783e-12
1.62482e-05
-4.59905e-12
1.62482e-05
-4.99161e-12
1.62482e-05
-3.79504e-12
1.62482e-05
-2.61794e-12
1.62482e-05
-1.71495e-12
1.62482e-05
-1.06334e-12
1.62482e-05
-6.29256e-13
1.62482e-05
-3.5433e-13
1.62482e-05
-1.87636e-13
1.62482e-05
-9.14346e-14
1.62482e-05
-3.95756e-14
1.62482e-05
-1.43917e-14
1.62482e-05
-3.30218e-15
1.62482e-05
4.70444e-15
1.62482e-05
2.37023e-14
1.62482e-05
7.55022e-14
1.62482e-05
1.95604e-13
1.62482e-05
3.98861e-13
1.62482e-05
7.45967e-13
6.53541e-13
1.87481e-05
-3.94698e-12
1.87481e-05
-4.28355e-12
1.87481e-05
-3.32331e-12
1.87481e-05
-2.32732e-12
1.87481e-05
-1.54452e-12
1.87481e-05
-9.66963e-13
1.87481e-05
-5.74793e-13
1.87481e-05
-3.23035e-13
1.87481e-05
-1.69423e-13
1.87481e-05
-8.13288e-14
1.87481e-05
-3.57349e-14
1.87481e-05
-1.731e-14
1.87481e-05
-1.59473e-14
1.87481e-05
-2.43739e-14
1.87481e-05
-3.50409e-14
1.87481e-05
-3.81084e-14
1.87481e-05
-1.5224e-14
1.87481e-05
2.66209e-14
1.87481e-05
1.23119e-13
4.00689e-14
2.1248e-05
-3.02313e-12
2.1248e-05
-3.25132e-12
2.1248e-05
-2.56443e-12
2.1248e-05
-1.8186e-12
2.1248e-05
-1.22209e-12
2.1248e-05
-7.71732e-13
2.1248e-05
-4.59317e-13
2.1248e-05
-2.55663e-13
2.1248e-05
-1.30764e-13
2.1248e-05
-6.02508e-14
2.1248e-05
-2.66032e-14
2.1248e-05
-1.85235e-14
2.1248e-05
-2.96683e-14
2.1248e-05
-5.7656e-14
2.1248e-05
-1.02765e-13
2.1248e-05
-1.68592e-13
2.1248e-05
-2.55416e-13
2.1248e-05
-3.89761e-13
2.1248e-05
-5.58664e-13
-6.30436e-13
2.37479e-05
-1.91746e-12
2.37479e-05
-2.0001e-12
2.37479e-05
-1.60707e-12
2.37479e-05
-1.15658e-12
2.37479e-05
-7.91036e-13
2.37479e-05
-5.05017e-13
2.37479e-05
-2.9944e-13
2.37479e-05
-1.62022e-13
2.37479e-05
-7.72661e-14
2.37479e-05
-3.11898e-14
2.37479e-05
-1.34014e-14
2.37479e-05
-1.77706e-14
2.37479e-05
-4.24596e-14
2.37479e-05
-9.04409e-14
2.37479e-05
-1.70091e-13
2.37479e-05
-2.98437e-13
2.37479e-05
-4.94338e-13
2.37479e-05
-8.01431e-13
2.37479e-05
-1.2314e-12
-1.29496e-12
2.62479e-05
-7.31164e-13
2.62479e-05
-6.49815e-13
2.62479e-05
-5.58501e-13
2.62479e-05
-4.24132e-13
2.62479e-05
-3.09655e-13
2.62479e-05
-2.0508e-13
2.62479e-05
-1.19096e-13
2.62479e-05
-5.65571e-14
2.62479e-05
-1.73481e-14
2.62479e-05
1.22393e-15
2.62479e-05
1.73435e-15
2.62479e-05
-1.52561e-14
2.62479e-05
-5.25059e-14
2.62479e-05
-1.18068e-13
2.62479e-05
-2.27701e-13
2.62479e-05
-4.10502e-13
2.62479e-05
-7.02619e-13
2.62479e-05
-1.16254e-12
2.62479e-05
-1.83182e-12
-1.8938e-12
2.8748e-05
4.28928e-13
2.8748e-05
6.71322e-13
2.8748e-05
4.63959e-13
2.8748e-05
2.86619e-13
2.8748e-05
1.56407e-13
2.8748e-05
8.46029e-14
2.8748e-05
5.43446e-14
2.8748e-05
4.41543e-14
2.8748e-05
3.92875e-14
2.8748e-05
3.15898e-14
2.8748e-05
1.61714e-14
2.8748e-05
-1.15815e-14
2.8748e-05
-5.84549e-14
2.8748e-05
-1.36623e-13
2.8748e-05
-2.67642e-13
2.8748e-05
-4.90159e-13
2.8748e-05
-8.55149e-13
2.8748e-05
-1.43377e-12
2.8748e-05
-2.30442e-12
-2.37348e-12
3.12481e-05
1.4558e-12
3.12481e-05
1.83349e-12
3.12481e-05
1.34236e-12
3.12481e-05
8.84321e-13
3.12481e-05
5.42974e-13
3.12481e-05
3.21986e-13
3.12481e-05
1.9472e-13
3.12481e-05
1.24407e-13
3.12481e-05
8.35159e-14
3.12481e-05
5.48184e-14
3.12481e-05
2.73452e-14
3.12481e-05
-7.56268e-15
3.12481e-05
-5.95763e-14
3.12481e-05
-1.43486e-13
3.12481e-05
-2.84384e-13
3.12481e-05
-5.26993e-13
3.12481e-05
-9.33479e-13
3.12481e-05
-1.58509e-12
3.12481e-05
-2.60403e-12
-2.68946e-12
3.37482e-05
2.24945e-12
3.37482e-05
2.71335e-12
3.37482e-05
1.96871e-12
3.37482e-05
1.28992e-12
3.37482e-05
7.96883e-13
3.37482e-05
4.73645e-13
3.37482e-05
2.81875e-13
3.37482e-05
1.72462e-13
3.37482e-05
1.08664e-13
3.37482e-05
6.72346e-14
3.37482e-05
3.33501e-14
3.37482e-05
-3.98994e-15
3.37482e-05
-5.58152e-14
3.37482e-05
-1.37695e-13
3.37482e-05
-2.75576e-13
3.37482e-05
-5.16089e-13
3.37482e-05
-9.27775e-13
3.37482e-05
-1.59818e-12
3.37482e-05
-2.69827e-12
-2.80871e-12
3.62484e-05
2.72178e-12
3.62484e-05
3.20292e-12
3.62484e-05
2.25893e-12
3.62484e-05
1.44922e-12
3.62484e-05
8.86119e-13
3.62484e-05
5.21467e-13
3.62484e-05
3.06021e-13
3.62484e-05
1.83127e-13
3.62484e-05
1.12053e-13
3.62484e-05
6.74512e-14
3.62484e-05
3.34234e-14
3.62484e-05
-1.40413e-15
3.62484e-05
-4.77667e-14
3.62484e-05
-1.20125e-13
3.62484e-05
-2.42501e-13
3.62484e-05
-4.5894e-13
3.62484e-05
-8.38382e-13
3.62484e-05
-1.46896e-12
3.62484e-05
-2.5701e-12
-2.71179e-12
3.87487e-05
2.8105e-12
3.87487e-05
3.22609e-12
3.87487e-05
2.16935e-12
3.87487e-05
1.34756e-12
3.87487e-05
8.086e-13
3.87487e-05
4.68129e-13
3.87487e-05
2.70557e-13
3.87487e-05
1.59329e-13
3.87487e-05
9.57863e-14
3.87487e-05
5.68076e-14
3.87487e-05
2.81812e-14
3.87487e-05
3.68739e-17
3.87487e-05
-3.66102e-14
3.87487e-05
-9.34914e-14
3.87487e-05
-1.90233e-13
3.87487e-05
-3.63946e-13
3.87487e-05
-6.77255e-13
3.87487e-05
-1.21039e-12
3.87487e-05
-2.22266e-12
-2.39712e-12
4.12489e-05
2.48379e-12
4.12489e-05
2.75548e-12
4.12489e-05
1.7214e-12
4.12489e-05
1.02264e-12
4.12489e-05
5.99122e-13
4.12489e-05
3.39172e-13
4.12489e-05
1.92719e-13
4.12489e-05
1.11968e-13
4.12489e-05
6.65488e-14
4.12489e-05
3.91769e-14
4.12489e-05
1.95235e-14
4.12489e-05
5.4671e-16
4.12489e-05
-2.40273e-14
4.12489e-05
-6.21832e-14
4.12489e-05
-1.27439e-13
4.12489e-05
-2.46541e-13
4.12489e-05
-4.68982e-13
4.12489e-05
-8.56448e-13
4.12489e-05
-1.68453e-12
-1.88452e-12
4.37492e-05
1.77742e-12
4.37492e-05
1.86015e-12
4.37492e-05
1.02786e-12
4.37492e-05
5.76955e-13
4.37492e-05
3.29061e-13
4.37492e-05
1.80917e-13
4.37492e-05
1.00749e-13
4.37492e-05
5.78923e-14
4.37492e-05
3.41897e-14
4.37492e-05
2.01395e-14
4.37492e-05
1.01763e-14
4.37492e-05
5.3846e-16
4.37492e-05
-1.21263e-14
4.37492e-05
-3.18986e-14
4.37492e-05
-6.5824e-14
4.37492e-05
-1.28741e-13
4.37492e-05
-2.51863e-13
4.37492e-05
-4.67652e-13
4.37492e-05
-1.02502e-12
-1.2265e-12
4.62495e-05
7.85487e-13
4.62495e-05
7.53113e-13
4.62495e-05
3.36018e-13
4.62495e-05
1.72831e-13
4.62495e-05
9.67948e-14
4.62495e-05
5.0764e-14
4.62495e-05
2.75026e-14
4.62495e-05
1.56736e-14
4.62495e-05
9.27834e-15
4.62495e-05
5.5661e-15
4.62495e-05
2.96519e-15
4.62495e-05
3.58892e-16
4.62495e-05
-3.30715e-15
4.62495e-05
-9.10799e-15
4.62495e-05
-1.89322e-14
4.62495e-05
-3.74361e-14
4.62495e-05
-7.63338e-14
4.62495e-05
-1.41211e-13
4.62495e-05
-3.74871e-13
-5.07685e-13
4.87498e-05
4.87498e-05
4.87498e-05
4.87498e-05
4.87498e-05
4.87498e-05
4.87498e-05
4.87498e-05
4.87498e-05
4.87498e-05
4.87498e-05
4.87498e-05
4.87498e-05
4.87498e-05
4.87498e-05
4.87498e-05
4.87498e-05
4.87498e-05
4.87498e-05
)
;

boundaryField
{
    top
    {
        type            calculated;
        value           uniform 0;
    }
    bottom
    {
        type            calculated;
        value           uniform 0;
    }
    inlet
    {
        type            calculated;
        value           nonuniform List<scalar> 
20
(
-1.24983e-06
-3.74951e-06
-6.2492e-06
-8.74892e-06
-1.12487e-05
-1.37484e-05
-1.62482e-05
-1.87481e-05
-2.1248e-05
-2.37479e-05
-2.62479e-05
-2.8748e-05
-3.12481e-05
-3.37482e-05
-3.62484e-05
-3.87487e-05
-4.12489e-05
-4.37492e-05
-4.62495e-05
-4.87498e-05
)
;
    }
    outlet
    {
        type            calculated;
        value           nonuniform List<scalar> 
20
(
1.24984e-06
3.74952e-06
6.24921e-06
8.74892e-06
1.12487e-05
1.37484e-05
1.62482e-05
1.87481e-05
2.1248e-05
2.37479e-05
2.62479e-05
2.8748e-05
3.12481e-05
3.37482e-05
3.62484e-05
3.87487e-05
4.12489e-05
4.37492e-05
4.62495e-05
4.87498e-05
)
;
    }
    frontAndBack
    {
        type            empty;
        value           nonuniform List<scalar> 0();
    }
}


// ************************************************************************* //
