/*--------------------------------*- C++ -*----------------------------------*\
  =========                 |
  \\      /  F ield         | OpenFOAM: The Open Source CFD Toolbox
   \\    /   O peration     | Website:  https://openfoam.org
    \\  /    A nd           | Version:  9
     \\/     M anipulation  |
\*---------------------------------------------------------------------------*/
FoamFile
{
    format      ascii;
    class       volVectorField;
    location    "1.5";
    object      U;
}
// * * * * * * * * * * * * * * * * * * * * * * * * * * * * * * * * * * * * * //

dimensions      [0 1 -1 0 0 0 0];

internalField   nonuniform List<vector> 
400
(
(0.0249967 -4.59968e-09 0)
(0.0249967 -3.67862e-09 0)
(0.0249967 -1.54485e-09 0)
(0.0249967 -8.22767e-10 0)
(0.0249967 -4.53636e-10 0)
(0.0249967 -2.40197e-10 0)
(0.0249967 -1.29379e-10 0)
(0.0249967 -6.46658e-11 0)
(0.0249967 -2.90997e-11 0)
(0.0249967 -1.23993e-11 0)
(0.0249967 -4.48129e-12 0)
(0.0249967 6.25608e-13 0)
(0.0249967 5.9813e-12 0)
(0.0249967 1.507e-11 0)
(0.0249967 3.59729e-11 0)
(0.0249967 9.57538e-11 0)
(0.0249967 2.39237e-10 0)
(0.0249967 5.71059e-10 0)
(0.0249967 2.01809e-09 0)
(0.0249967 2.36666e-09 0)
(0.0749903 -1.58388e-08 0)
(0.0749903 -1.40804e-08 0)
(0.0749903 -7.34943e-09 0)
(0.0749903 -4.21811e-09 0)
(0.0749903 -2.43584e-09 0)
(0.0749903 -1.35401e-09 0)
(0.0749903 -7.44291e-10 0)
(0.0749903 -3.9356e-10 0)
(0.0749903 -1.95092e-10 0)
(0.0749903 -8.84755e-11 0)
(0.0749903 -3.14152e-11 0)
(0.0749903 3.0618e-12 0)
(0.0749903 3.41994e-11 0)
(0.0749903 8.48953e-11 0)
(0.0749903 1.98597e-10 0)
(0.0749903 4.85676e-10 0)
(0.0749903 1.14193e-09 0)
(0.0749903 2.54154e-09 0)
(0.0749903 6.90724e-09 0)
(0.0749903 7.58295e-09 0)
(0.124984 -2.88061e-08 0)
(0.124984 -2.79747e-08 0)
(0.124984 -1.68964e-08 0)
(0.124984 -1.0223e-08 0)
(0.124984 -6.09775e-09 0)
(0.124984 -3.50626e-09 0)
(0.124984 -1.97162e-09 0)
(0.124984 -1.0683e-09 0)
(0.124984 -5.47986e-10 0)
(0.124984 -2.57783e-10 0)
(0.124984 -9.7184e-11 0)
(0.124984 -4.4705e-13 0)
(0.124984 8.28166e-11 0)
(0.124984 2.11728e-10 0)
(0.124984 4.89856e-10 0)
(0.124984 1.14353e-09 0)
(0.124984 2.57566e-09 0)
(0.124984 5.43427e-09 0)
(0.124984 1.22255e-08 0)
(0.124984 1.25737e-08 0)
(0.174978 -3.96358e-08 0)
(0.174978 -4.05371e-08 0)
(0.174978 -2.67297e-08 0)
(0.174978 -1.68364e-08 0)
(0.174978 -1.03135e-08 0)
(0.174978 -6.06415e-09 0)
(0.174978 -3.46182e-09 0)
(0.174978 -1.90404e-09 0)
(0.174978 -9.9343e-10 0)
(0.174978 -4.75862e-10 0)
(0.174978 -1.86338e-10 0)
(0.174978 -1.48833e-11 0)
(0.174978 1.24754e-10 0)
(0.174978 3.30337e-10 0)
(0.174978 7.62917e-10 0)
(0.174978 1.74206e-09 0)
(0.174978 3.81911e-09 0)
(0.174978 7.75151e-09 0)
(0.174978 1.56531e-08 0)
(0.174978 1.54436e-08 0)
(0.224973 -4.67379e-08 0)
(0.224973 -4.92523e-08 0)
(0.224973 -3.44371e-08 0)
(0.224973 -2.24318e-08 0)
(0.224973 -1.40649e-08 0)
(0.224973 -8.42785e-09 0)
(0.224973 -4.87606e-09 0)
(0.224973 -2.71114e-09 0)
(0.224973 -1.42912e-09 0)
(0.224973 -6.93225e-10 0)
(0.224973 -2.81386e-10 0)
(0.224973 -4.38095e-11 0)
(0.224973 1.35989e-10 0)
(0.224973 3.83717e-10 0)
(0.224973 8.94849e-10 0)
(0.224973 2.02933e-09 0)
(0.224973 4.38536e-09 0)
(0.224973 8.64153e-09 0)
(0.224973 1.63803e-08 0)
(0.224973 1.573e-08 0)
(0.274969 -4.96552e-08 0)
(0.274969 -5.32496e-08 0)
(0.274969 -3.88309e-08 0)
(0.274969 -2.59955e-08 0)
(0.274969 -1.66298e-08 0)
(0.274969 -1.0124e-08 0)
(0.274969 -5.92261e-09 0)
(0.274969 -3.31868e-09 0)
(0.274969 -1.75963e-09 0)
(0.274969 -8.59849e-10 0)
(0.274969 -3.59822e-10 0)
(0.274969 -8.34628e-11 0)
(0.274969 1.03013e-10 0)
(0.274969 3.35226e-10 0)
(0.274969 8.1115e-10 0)
(0.274969 1.87243e-09 0)
(0.274969 4.06938e-09 0)
(0.274969 7.89437e-09 0)
(0.274969 1.44511e-08 0)
(0.274969 1.35676e-08 0)
(0.324965 -4.84601e-08 0)
(0.324965 -5.24678e-08 0)
(0.324965 -3.94626e-08 0)
(0.324965 -2.70024e-08 0)
(0.324965 -1.75681e-08 0)
(0.324965 -1.08369e-08 0)
(0.324965 -6.39467e-09 0)
(0.324965 -3.59986e-09 0)
(0.324965 -1.91121e-09 0)
(0.324965 -9.35125e-10 0)
(0.324965 -4.01259e-10 0)
(0.324965 -1.2627e-10 0)
(0.324965 2.40764e-11 0)
(0.324965 1.74696e-10 0)
(0.324965 4.94136e-10 0)
(0.324965 1.25402e-09 0)
(0.324965 2.88875e-09 0)
(0.324965 5.66185e-09 0)
(0.324965 1.03164e-08 0)
(0.324965 9.37854e-09 0)
(0.374962 -4.35065e-08 0)
(0.374962 -4.72617e-08 0)
(0.374962 -3.6383e-08 0)
(0.374962 -2.53258e-08 0)
(0.374962 -1.67129e-08 0)
(0.374962 -1.04211e-08 0)
(0.374962 -6.18662e-09 0)
(0.374962 -3.48539e-09 0)
(0.374962 -1.84139e-09 0)
(0.374962 -8.94057e-10 0)
(0.374962 -3.91088e-10 0)
(0.374962 -1.62784e-10 0)
(0.374962 -9.19979e-11 0)
(0.374962 -8.37184e-11 0)
(0.374962 -2.55341e-11 0)
(0.374962 2.46164e-10 0)
(0.374962 1.0057e-09 0)
(0.374962 2.28941e-09 0)
(0.374962 4.56765e-09 0)
(0.374962 3.6896e-09 0)
(0.42496 -3.54221e-08 0)
(0.42496 -3.8334e-08 0)
(0.42496 -3.00454e-08 0)
(0.42496 -2.12011e-08 0)
(0.42496 -1.4167e-08 0)
(0.42496 -8.91386e-09 0)
(0.42496 -5.30815e-09 0)
(0.42496 -2.97554e-09 0)
(0.42496 -1.54777e-09 0)
(0.42496 -7.33359e-10 0)
(0.42496 -3.2457e-10 0)
(0.42496 -1.84648e-10 0)
(0.42496 -2.28753e-10 0)
(0.42496 -4.06558e-10 0)
(0.42496 -6.79805e-10 0)
(0.42496 -1.01558e-09 0)
(0.42496 -1.3223e-09 0)
(0.42496 -1.7719e-09 0)
(0.42496 -2.11837e-09 0)
(0.42496 -2.88721e-09 0)
(0.474959 -2.50325e-08 0)
(0.474959 -2.66436e-08 0)
(0.474959 -2.12222e-08 0)
(0.474959 -1.51633e-08 0)
(0.474959 -1.0272e-08 0)
(0.474959 -6.52129e-09 0)
(0.474959 -3.87999e-09 0)
(0.474959 -2.13961e-09 0)
(0.474959 -1.06906e-09 0)
(0.474959 -4.7286e-10 0)
(0.474959 -2.08517e-10 0)
(0.474959 -1.86905e-10 0)
(0.474959 -3.66031e-10 0)
(0.474959 -7.4857e-10 0)
(0.474959 -1.37836e-09 0)
(0.474959 -2.36019e-09 0)
(0.474959 -3.79174e-09 0)
(0.474959 -6.02805e-09 0)
(0.474959 -9.04844e-09 0)
(0.474959 -9.71649e-09 0)
(0.524959 -1.33094e-08 0)
(0.524959 -1.33344e-08 0)
(0.524959 -1.09146e-08 0)
(0.524959 -7.97185e-09 0)
(0.524959 -5.55319e-09 0)
(0.524959 -3.58394e-09 0)
(0.524959 -2.11315e-09 0)
(0.524959 -1.10414e-09 0)
(0.524959 -4.78527e-10 0)
(0.524959 -1.5241e-10 0)
(0.524959 -6.05082e-11 0)
(0.524959 -1.693e-10 0)
(0.524959 -4.83951e-10 0)
(0.524959 -1.06108e-09 0)
(0.524959 -2.02421e-09 0)
(0.524959 -3.60864e-09 0)
(0.524959 -6.09418e-09 0)
(0.524959 -9.99568e-09 0)
(0.524959 -1.55566e-08 0)
(0.524959 -1.61752e-08 0)
(0.57496 -1.30716e-09 0)
(0.57496 3.35771e-10 0)
(0.57496 -2.68023e-10 0)
(0.57496 -5.25117e-10 0)
(0.57496 -6.50891e-10 0)
(0.57496 -5.26e-10 0)
(0.57496 -2.74946e-10 0)
(0.57496 -3.12219e-11 0)
(0.57496 1.28888e-10 0)
(0.57496 1.7532e-10 0)
(0.57496 9.43273e-11 0)
(0.57496 -1.36226e-10 0)
(0.57496 -5.66185e-10 0)
(0.57496 -1.29971e-09 0)
(0.57496 -2.52814e-09 0)
(0.57496 -4.5974e-09 0)
(0.57496 -7.95065e-09 0)
(0.57496 -1.32411e-08 0)
(0.57496 -2.10418e-08 0)
(0.57496 -2.16904e-08 0)
(0.624962 9.88815e-09 0)
(0.624962 1.30575e-08 0)
(0.624962 9.51654e-09 0)
(0.624962 6.23279e-09 0)
(0.624962 3.76282e-09 0)
(0.624962 2.20733e-09 0)
(0.624962 1.35487e-09 0)
(0.624962 9.09861e-10 0)
(0.624962 6.54217e-10 0)
(0.624962 4.55034e-10 0)
(0.624962 2.2848e-10 0)
(0.624962 -9.53616e-11 0)
(0.624962 -6.02121e-10 0)
(0.624962 -1.43076e-09 0)
(0.624962 -2.8206e-09 0)
(0.624962 -5.19771e-09 0)
(0.624962 -9.13811e-09 0)
(0.624962 -1.54112e-08 0)
(0.624962 -2.49938e-08 0)
(0.624962 -2.57652e-08 0)
(0.674965 1.92273e-08 0)
(0.674965 2.35445e-08 0)
(0.674965 1.728e-08 0)
(0.674965 1.14205e-08 0)
(0.674965 7.07654e-09 0)
(0.674965 4.22101e-09 0)
(0.674965 2.53286e-09 0)
(0.674965 1.57448e-09 0)
(0.674965 1.01398e-09 0)
(0.674965 6.40306e-10 0)
(0.674965 3.18159e-10 0)
(0.674965 -5.53992e-11 0)
(0.674965 -5.87888e-10 0)
(0.674965 -1.43574e-09 0)
(0.674965 -2.86087e-09 0)
(0.674965 -5.33047e-09 0)
(0.674965 -9.51121e-09 0)
(0.674965 -1.62587e-08 0)
(0.674965 -2.70193e-08 0)
(0.674965 -2.8006e-08 0)
(0.724969 2.57485e-08 0)
(0.724969 3.06128e-08 0)
(0.724969 2.2028e-08 0)
(0.724969 1.43391e-08 0)
(0.724969 8.84078e-09 0)
(0.724969 5.24163e-09 0)
(0.724969 3.09984e-09 0)
(0.724969 1.87241e-09 0)
(0.724969 1.15826e-09 0)
(0.724969 7.04033e-10 0)
(0.724969 3.49031e-10 0)
(0.724969 -2.3518e-11 0)
(0.724969 -5.26378e-10 0)
(0.724969 -1.31412e-09 0)
(0.724969 -2.64306e-09 0)
(0.724969 -4.97722e-09 0)
(0.724969 -9.01937e-09 0)
(0.724969 -1.56662e-08 0)
(0.724969 -2.68639e-08 0)
(0.724969 -2.81447e-08 0)
(0.774973 2.8677e-08 0)
(0.774973 3.32951e-08 0)
(0.774973 2.30646e-08 0)
(0.774973 1.46065e-08 0)
(0.774973 8.86276e-09 0)
(0.774973 5.1808e-09 0)
(0.774973 3.01836e-09 0)
(0.774973 1.78986e-09 0)
(0.774973 1.08303e-09 0)
(0.774973 6.45426e-10 0)
(0.774973 3.20051e-10 0)
(0.774973 -3.44013e-12 0)
(0.774973 -4.2666e-10 0)
(0.774973 -1.08398e-09 0)
(0.774973 -2.19888e-09 0)
(0.774973 -4.18628e-09 0)
(0.774973 -7.72003e-09 0)
(0.774973 -1.36664e-08 0)
(0.774973 -2.44416e-08 0)
(0.774973 -2.60659e-08 0)
(0.824978 2.74243e-08 0)
(0.824978 3.09319e-08 0)
(0.824978 2.01776e-08 0)
(0.824978 1.22831e-08 0)
(0.824978 7.28504e-09 0)
(0.824978 4.17272e-09 0)
(0.824978 2.3906e-09 0)
(0.824978 1.39659e-09 0)
(0.824978 8.33138e-10 0)
(0.824978 4.9124e-10 0)
(0.824978 2.44275e-10 0)
(0.824978 5.4609e-12 0)
(0.824978 -3.0281e-10 0)
(0.824978 -7.80565e-10 0)
(0.824978 -1.59615e-09 0)
(0.824978 -3.07396e-09 0)
(0.824978 -5.78657e-09 0)
(0.824978 -1.04667e-08 0)
(0.824978 -1.98515e-08 0)
(0.824978 -2.18077e-08 0)
(0.874984 2.19022e-08 0)
(0.874984 2.3627e-08 0)
(0.874984 1.39829e-08 0)
(0.874984 8.06808e-09 0)
(0.874984 4.65479e-09 0)
(0.874984 2.59566e-09 0)
(0.874984 1.45861e-09 0)
(0.874984 8.41296e-10 0)
(0.874984 4.97244e-10 0)
(0.874984 2.91915e-10 0)
(0.874984 1.46093e-10 0)
(0.874984 6.09595e-12 0)
(0.874984 -1.75765e-10 0)
(0.874984 -4.58611e-10 0)
(0.874984 -9.42752e-10 0)
(0.874984 -1.83473e-09 0)
(0.874984 -3.54207e-09 0)
(0.874984 -6.54261e-09 0)
(0.874984 -1.35566e-08 0)
(0.874984 -1.56707e-08 0)
(0.92499 1.30024e-08 0)
(0.92499 1.30918e-08 0)
(0.92499 6.57128e-09 0)
(0.92499 3.48682e-09 0)
(0.92499 1.9467e-09 0)
(0.92499 1.041e-09 0)
(0.92499 5.68897e-10 0)
(0.92499 3.24181e-10 0)
(0.92499 1.91134e-10 0)
(0.92499 1.13361e-10 0)
(0.92499 5.85609e-11 0)
(0.92499 4.68592e-12 0)
(0.92499 -6.80808e-11 0)
(0.92499 -1.8267e-10 0)
(0.92499 -3.79448e-10 0)
(0.92499 -7.49347e-10 0)
(0.92499 -1.50045e-09 0)
(0.92499 -2.81447e-09 0)
(0.92499 -6.77091e-09 0)
(0.92499 -8.54401e-09 0)
(0.974997 4.01634e-09 0)
(0.974997 3.75399e-09 0)
(0.974997 1.49645e-09 0)
(0.974997 6.9466e-10 0)
(0.974997 3.726e-10 0)
(0.974997 1.85307e-10 0)
(0.974997 9.69518e-11 0)
(0.974997 5.4607e-11 0)
(0.974997 3.21976e-11 0)
(0.974997 1.9284e-11 0)
(0.974997 1.02455e-11 0)
(0.974997 7.13662e-13 0)
(0.974997 -1.37692e-11 0)
(0.974997 -3.714e-11 0)
(0.974997 -7.53561e-11 0)
(0.974997 -1.48337e-10 0)
(0.974997 -3.12913e-10 0)
(0.974997 -5.88036e-10 0)
(0.974997 -1.76218e-09 0)
(0.974997 -2.46462e-09 0)
)
;

boundaryField
{
    top
    {
        type            fixedValue;
        value           uniform (1 0 0);
    }
    bottom
    {
        type            fixedValue;
        value           uniform (0 0 0);
    }
    inlet
    {
        type            zeroGradient;
    }
    outlet
    {
        type            zeroGradient;
    }
    frontAndBack
    {
        type            empty;
    }
}


// ************************************************************************* //
