/*--------------------------------*- C++ -*----------------------------------*\
  =========                 |
  \\      /  F ield         | OpenFOAM: The Open Source CFD Toolbox
   \\    /   O peration     | Website:  https://openfoam.org
    \\  /    A nd           | Version:  9
     \\/     M anipulation  |
\*---------------------------------------------------------------------------*/
FoamFile
{
    format      ascii;
    class       volScalarField;
    location    "4.2";
    object      p;
}
// * * * * * * * * * * * * * * * * * * * * * * * * * * * * * * * * * * * * * //

dimensions      [0 2 -2 0 0 0 0];

internalField   nonuniform List<scalar> 
400
(
4.16107e-11
6.89588e-11
6.6679e-11
6.34277e-11
5.8085e-11
5.1756e-11
4.51622e-11
3.84532e-11
3.17413e-11
2.50827e-11
1.84474e-11
1.17927e-11
5.10354e-12
-1.61728e-12
-8.3629e-12
-1.51457e-11
-2.17908e-11
-2.78188e-11
-3.54373e-11
-2.2389e-11
3.94682e-11
6.57103e-11
6.32318e-11
6.13625e-11
5.68322e-11
5.10004e-11
4.47248e-11
3.82086e-11
3.16099e-11
2.50168e-11
1.84194e-11
1.1789e-11
5.12221e-12
-1.56491e-12
-8.24056e-12
-1.48818e-11
-2.12314e-11
-2.6535e-11
-3.45996e-11
-2.1818e-11
3.99026e-11
6.59931e-11
6.12919e-11
6.00243e-11
5.5933e-11
5.04063e-11
4.43585e-11
3.79917e-11
3.14847e-11
2.49459e-11
1.83816e-11
1.17743e-11
5.12874e-12
-1.53033e-12
-8.15581e-12
-1.47159e-11
-2.0944e-11
-2.59061e-11
-3.57112e-11
-2.26194e-11
4.14339e-11
6.88679e-11
6.08826e-11
5.94596e-11
5.54472e-11
5.00213e-11
4.40932e-11
3.78179e-11
3.1372e-11
2.48722e-11
1.83343e-11
1.1747e-11
5.11887e-12
-1.52234e-12
-8.12567e-12
-1.46741e-11
-2.09452e-11
-2.59504e-11
-3.79636e-11
-2.38614e-11
4.3112e-11
7.28531e-11
6.12656e-11
5.93315e-11
5.52101e-11
4.97666e-11
4.38909e-11
3.7669e-11
3.12638e-11
2.47939e-11
1.82788e-11
1.17094e-11
5.09458e-12
-1.53746e-12
-8.13918e-12
-1.47179e-11
-2.11198e-11
-2.63196e-11
-4.04842e-11
-2.5042e-11
4.46613e-11
7.71593e-11
6.20407e-11
5.9439e-11
5.51213e-11
4.95903e-11
4.37239e-11
3.75321e-11
3.11565e-11
2.47115e-11
1.8217e-11
1.16635e-11
5.0587e-12
-1.57052e-12
-8.18257e-12
-1.48119e-11
-2.13766e-11
-2.68023e-11
-4.2796e-11
-2.60025e-11
4.60279e-11
8.13505e-11
6.29802e-11
5.96606e-11
5.51117e-11
4.94574e-11
4.35749e-11
3.74002e-11
3.10487e-11
2.46262e-11
1.81507e-11
1.16117e-11
5.01465e-12
-1.61517e-12
-8.24251e-12
-1.49247e-11
-2.165e-11
-2.72706e-11
-4.46571e-11
-2.67154e-11
4.71579e-11
8.50692e-11
6.39e-11
5.98894e-11
5.51191e-11
4.93364e-11
4.34285e-11
3.72669e-11
3.09386e-11
2.45386e-11
1.8082e-11
1.1557e-11
4.9669e-12
-1.66345e-12
-8.30356e-12
-1.50266e-11
-2.18813e-11
-2.76289e-11
-4.58989e-11
-2.71537e-11
4.80169e-11
8.80376e-11
6.46512e-11
6.00422e-11
5.50947e-11
4.92033e-11
4.32744e-11
3.71287e-11
3.08258e-11
2.44501e-11
1.80134e-11
1.15029e-11
4.92031e-12
-1.70705e-12
-8.35118e-12
-1.50907e-11
-2.20225e-11
-2.78074e-11
-4.64261e-11
-2.73105e-11
4.85797e-11
9.00519e-11
6.51313e-11
6.00664e-11
5.50098e-11
4.9047e-11
4.31098e-11
3.69858e-11
3.07122e-11
2.4363e-11
1.79476e-11
1.14522e-11
4.88011e-12
-1.73842e-12
-8.37299e-12
-1.50969e-11
-2.20406e-11
-2.77652e-11
-4.62033e-11
-2.71873e-11
4.88278e-11
9.09804e-11
6.52836e-11
5.99414e-11
5.48564e-11
4.88683e-11
4.29396e-11
3.68436e-11
3.0602e-11
2.42804e-11
1.78866e-11
1.14084e-11
4.85023e-12
-1.7522e-12
-8.36138e-12
-1.50354e-11
-2.19201e-11
-2.74897e-11
-4.52479e-11
-2.67962e-11
4.87449e-11
9.07588e-11
6.50956e-11
5.9677e-11
5.46468e-11
4.86808e-11
4.27752e-11
3.6711e-11
3.05016e-11
2.42064e-11
1.78337e-11
1.13732e-11
4.83213e-12
-1.74602e-12
-8.31413e-12
-1.49056e-11
-2.16632e-11
-2.6994e-11
-4.36222e-11
-2.61555e-11
4.83159e-11
8.93927e-11
6.46014e-11
5.93122e-11
5.44105e-11
4.85069e-11
4.26334e-11
3.65995e-11
3.04184e-11
2.41451e-11
1.7791e-11
1.13474e-11
4.8269e-12
-1.72107e-12
-8.23584e-12
-1.47185e-11
-2.12902e-11
-2.63161e-11
-4.14291e-11
-2.52905e-11
4.75357e-11
8.69719e-11
6.38839e-11
5.8914e-11
5.41914e-11
4.83758e-11
4.25335e-11
3.65214e-11
3.03589e-11
2.41008e-11
1.77601e-11
1.13317e-11
4.83202e-12
-1.68338e-12
-8.13818e-12
-1.44953e-11
-2.08391e-11
-2.55187e-11
-3.88105e-11
-2.42359e-11
4.64067e-11
8.36796e-11
6.30797e-11
5.85717e-11
5.40446e-11
4.83174e-11
4.24932e-11
3.64864e-11
3.03292e-11
2.40765e-11
1.77421e-11
1.13245e-11
4.84267e-12
-1.6411e-12
-8.03735e-12
-1.42678e-11
-2.03656e-11
-2.46872e-11
-3.59493e-11
-2.30374e-11
4.4961e-11
7.9812e-11
6.23686e-11
5.83897e-11
5.40242e-11
4.83604e-11
4.25253e-11
3.65012e-11
3.03322e-11
2.40725e-11
1.77361e-11
1.13234e-11
4.85362e-12
-1.60556e-12
-7.9534e-12
-1.40746e-11
-1.99367e-11
-2.39253e-11
-3.30675e-11
-2.17541e-11
4.32227e-11
7.57769e-11
6.19827e-11
5.84736e-11
5.4181e-11
4.85236e-11
4.26352e-11
3.65659e-11
3.03674e-11
2.40882e-11
1.77408e-11
1.13253e-11
4.85904e-12
-1.5886e-12
-7.90854e-12
-1.39573e-11
-1.96285e-11
-2.3359e-11
-3.04266e-11
-2.04497e-11
4.14453e-11
7.23733e-11
6.23159e-11
5.89919e-11
5.45814e-11
4.88317e-11
4.28303e-11
3.66816e-11
3.04329e-11
2.4122e-11
1.77545e-11
1.13266e-11
4.85151e-12
-1.60459e-12
-7.92901e-12
-1.39661e-11
-1.95465e-11
-2.31922e-11
-2.84606e-11
-1.92996e-11
4.04395e-11
7.10926e-11
6.4094e-11
6.02209e-11
5.53421e-11
4.93256e-11
4.31243e-11
3.68523e-11
3.05309e-11
2.41746e-11
1.77768e-11
1.13254e-11
4.82565e-12
-1.66481e-12
-8.04227e-12
-1.41617e-11
-1.98279e-11
-2.37493e-11
-2.79351e-11
-1.88457e-11
4.16871e-11
7.32309e-11
6.7297e-11
6.20986e-11
5.63972e-11
4.99492e-11
4.34794e-11
3.70556e-11
3.06484e-11
2.4239e-11
1.78049e-11
1.13218e-11
4.78524e-12
-1.75987e-12
-8.23034e-12
-1.45138e-11
-2.04519e-11
-2.50047e-11
-2.93032e-11
-1.98911e-11
)
;

boundaryField
{
    top
    {
        type            zeroGradient;
    }
    bottom
    {
        type            zeroGradient;
    }
    inlet
    {
        type            fixedValue;
        value           uniform 0;
    }
    outlet
    {
        type            fixedValue;
        value           uniform 0;
    }
    frontAndBack
    {
        type            empty;
    }
}


// ************************************************************************* //
