/*--------------------------------*- C++ -*----------------------------------*\
  =========                 |
  \\      /  F ield         | OpenFOAM: The Open Source CFD Toolbox
   \\    /   O peration     | Website:  https://openfoam.org
    \\  /    A nd           | Version:  9
     \\/     M anipulation  |
\*---------------------------------------------------------------------------*/
FoamFile
{
    format      ascii;
    class       surfaceScalarField;
    location    "4.2";
    object      phi;
}
// * * * * * * * * * * * * * * * * * * * * * * * * * * * * * * * * * * * * * //

dimensions      [0 3 -1 0 0 0 0];

internalField   nonuniform List<scalar> 
760
(
1.25e-06
-2.54867e-16
1.25e-06
-2.12094e-16
1.25e-06
-1.01016e-16
1.25e-06
-5.74558e-17
1.25e-06
-3.29818e-17
1.25e-06
-1.81257e-17
1.25e-06
-9.9331e-18
1.25e-06
-5.20145e-18
1.25e-06
-2.53936e-18
1.25e-06
-1.15624e-18
1.25e-06
-4.34971e-19
1.25e-06
9.54635e-21
1.25e-06
4.17147e-19
1.25e-06
1.07912e-18
1.25e-06
2.55939e-18
1.25e-06
6.46585e-18
1.25e-06
1.54196e-17
1.25e-06
3.4455e-17
1.25e-06
1.08561e-16
1.25312e-16
3.75e-06
-6.13555e-16
3.75e-06
-5.74948e-16
3.75e-06
-3.28724e-16
3.75e-06
-1.95648e-16
3.75e-06
-1.15457e-16
3.75e-06
-6.56945e-17
3.75e-06
-3.66948e-17
3.75e-06
-1.97557e-17
3.75e-06
-1.00508e-17
3.75e-06
-4.69061e-18
3.75e-06
-1.75065e-18
3.75e-06
1.99001e-20
3.75e-06
1.55658e-18
3.75e-06
3.96858e-18
3.75e-06
9.244e-18
3.75e-06
2.19638e-17
3.75e-06
5.03451e-17
3.75e-06
1.08094e-16
3.75e-06
2.63455e-16
2.78431e-16
6.25e-06
-9.33189e-16
6.25e-06
-9.36232e-16
6.25e-06
-5.95147e-16
6.25e-06
-3.68549e-16
6.25e-06
-2.23329e-16
6.25e-06
-1.30152e-16
6.25e-06
-7.38619e-17
6.25e-06
-4.03987e-17
6.25e-06
-2.09478e-17
6.25e-06
-9.96721e-18
6.25e-06
-3.85363e-18
6.25e-06
-2.14603e-19
6.25e-06
2.80273e-18
6.25e-06
7.34081e-18
6.25e-06
1.70127e-17
6.25e-06
3.92896e-17
6.25e-06
8.72491e-17
6.25e-06
1.80472e-16
6.25e-06
3.82277e-16
3.82566e-16
8.75e-06
-1.17252e-15
8.75e-06
-1.22123e-15
8.75e-06
-8.31255e-16
8.75e-06
-5.33388e-16
8.75e-06
-3.31028e-16
8.75e-06
-1.96747e-16
8.75e-06
-1.13192e-16
8.75e-06
-6.26493e-17
8.75e-06
-3.28807e-17
8.75e-06
-1.58716e-17
8.75e-06
-6.36083e-18
8.75e-06
-8.15531e-19
8.75e-06
3.51507e-18
8.75e-06
9.66715e-18
8.75e-06
2.25016e-17
8.75e-06
5.12676e-17
8.75e-06
1.11647e-16
8.75e-06
2.23253e-16
8.75e-06
4.36613e-16
4.23448e-16
1.125e-05
-1.30711e-15
1.125e-05
-1.39181e-15
1.125e-05
-9.94464e-16
1.125e-05
-6.57181e-16
1.125e-05
-4.16518e-16
1.125e-05
-2.51714e-16
1.125e-05
-1.46516e-16
1.125e-05
-8.18131e-17
1.125e-05
-4.32717e-17
1.125e-05
-2.10879e-17
1.125e-05
-8.72295e-18
1.125e-05
-1.75523e-18
1.125e-05
3.20983e-18
1.125e-05
9.72619e-18
1.125e-05
2.314e-17
1.125e-05
5.30008e-17
1.125e-05
1.14901e-16
1.125e-05
2.24766e-16
1.125e-05
4.19142e-16
3.9729e-16
1.375e-05
-1.33047e-15
1.375e-05
-1.43502e-15
1.375e-05
-1.06238e-15
1.375e-05
-7.19081e-16
1.375e-05
-4.63988e-16
1.375e-05
-2.84369e-16
1.375e-05
-1.67104e-16
1.375e-05
-9.38698e-17
1.375e-05
-4.98243e-17
1.375e-05
-2.43853e-17
1.375e-05
-1.03596e-17
1.375e-05
-2.88264e-18
1.375e-05
1.68549e-18
1.375e-05
6.8873e-18
1.375e-05
1.77056e-17
1.375e-05
4.24715e-17
1.375e-05
9.45651e-17
1.375e-05
1.84205e-16
1.375e-05
3.36566e-16
3.11179e-16
1.625e-05
-1.24701e-15
1.625e-05
-1.35345e-15
1.625e-05
-1.02902e-15
1.625e-05
-7.09888e-16
1.625e-05
-4.65054e-16
1.625e-05
-2.88366e-16
1.625e-05
-1.70673e-16
1.625e-05
-9.61298e-17
1.625e-05
-5.09376e-17
1.625e-05
-2.48572e-17
1.625e-05
-1.07939e-17
1.625e-05
-3.96685e-18
1.625e-05
-9.67384e-19
1.625e-05
1.19848e-18
1.625e-05
6.34714e-18
1.625e-05
2.03978e-17
1.625e-05
5.29712e-17
1.625e-05
1.08089e-16
1.625e-05
2.02215e-16
1.77163e-16
1.875e-05
-1.07021e-15
1.875e-05
-1.16147e-15
1.875e-05
-9.01125e-16
1.875e-05
-6.31087e-16
1.875e-05
-4.18849e-16
1.875e-05
-2.62242e-16
1.875e-05
-1.55916e-16
1.875e-05
-8.76588e-17
1.875e-05
-4.60091e-17
1.875e-05
-2.21271e-17
1.875e-05
-9.76523e-18
1.875e-05
-4.77075e-18
1.875e-05
-4.39982e-18
1.875e-05
-6.6932e-18
1.875e-05
-9.58737e-18
1.875e-05
-1.04144e-17
1.875e-05
-4.19342e-18
1.875e-05
7.16913e-18
1.875e-05
3.33444e-17
1.08367e-17
2.125e-05
-8.19724e-16
2.125e-05
-8.81595e-16
2.125e-05
-6.95364e-16
2.125e-05
-4.93153e-16
2.125e-05
-3.31424e-16
2.125e-05
-2.0932e-16
2.125e-05
-1.2462e-16
2.125e-05
-6.93999e-17
2.125e-05
-3.55308e-17
2.125e-05
-1.64176e-17
2.125e-05
-7.29907e-18
2.125e-05
-5.10039e-18
2.125e-05
-8.12778e-18
2.125e-05
-1.57214e-17
2.125e-05
-2.79556e-17
2.125e-05
-4.58024e-17
2.125e-05
-6.93148e-17
2.125e-05
-1.0572e-16
2.125e-05
-1.515e-16
-1.70953e-16
2.375e-05
-5.19936e-16
2.375e-05
-5.42344e-16
2.375e-05
-4.3579e-16
2.375e-05
-3.13651e-16
2.375e-05
-2.14545e-16
2.375e-05
-1.37005e-16
2.375e-05
-8.12808e-17
2.375e-05
-4.40172e-17
2.375e-05
-2.10319e-17
2.375e-05
-8.53478e-18
2.375e-05
-3.71193e-18
2.375e-05
-4.90206e-18
2.375e-05
-1.16023e-17
2.375e-05
-2.46096e-17
2.375e-05
-4.62094e-17
2.375e-05
-8.10011e-17
2.375e-05
-1.34088e-16
2.375e-05
-2.17326e-16
2.375e-05
-3.33888e-16
-3.51116e-16
2.625e-05
-1.98287e-16
2.625e-05
-1.76238e-16
2.625e-05
-1.51482e-16
2.625e-05
-1.15053e-16
2.625e-05
-8.40231e-17
2.625e-05
-5.56843e-17
2.625e-05
-3.23813e-17
2.625e-05
-1.54245e-17
2.625e-05
-4.78682e-18
2.625e-05
2.56648e-19
2.625e-05
3.93377e-19
2.625e-05
-4.21388e-18
2.625e-05
-1.43165e-17
2.625e-05
-3.20975e-17
2.625e-05
-6.1826e-17
2.625e-05
-1.11375e-16
2.625e-05
-1.9055e-16
2.625e-05
-3.15224e-16
2.625e-05
-4.96664e-16
-5.13471e-16
2.875e-05
1.16262e-16
2.875e-05
1.8198e-16
2.875e-05
1.2575e-16
2.875e-05
7.76603e-17
2.875e-05
4.23462e-17
2.875e-05
2.28591e-17
2.875e-05
1.46494e-17
2.875e-05
1.18842e-17
2.875e-05
1.05668e-17
2.875e-05
8.49949e-18
2.875e-05
4.31739e-18
2.875e-05
-3.20164e-18
2.875e-05
-1.5933e-17
2.875e-05
-3.71273e-17
2.875e-05
-7.26455e-17
2.875e-05
-1.32956e-16
2.875e-05
-2.31897e-16
2.875e-05
-3.88753e-16
2.875e-05
-6.24781e-16
-6.43518e-16
3.125e-05
3.94693e-16
3.125e-05
4.97096e-16
3.125e-05
3.63926e-16
3.125e-05
2.39722e-16
3.125e-05
1.47167e-16
3.125e-05
8.72245e-17
3.125e-05
5.27133e-17
3.125e-05
3.36479e-17
3.125e-05
2.25717e-17
3.125e-05
1.4801e-17
3.125e-05
7.35846e-18
3.125e-05
-2.11212e-18
3.125e-05
-1.62296e-17
3.125e-05
-3.89698e-17
3.125e-05
-7.71602e-17
3.125e-05
-1.42937e-16
3.125e-05
-2.53133e-16
3.125e-05
-4.29769e-16
3.125e-05
-7.06019e-16
-7.29185e-16
3.375e-05
6.09881e-16
3.375e-05
7.35664e-16
3.375e-05
5.33769e-16
3.375e-05
3.49705e-16
3.375e-05
2.16007e-16
3.375e-05
1.28364e-16
3.375e-05
7.63558e-17
3.375e-05
4.66934e-17
3.375e-05
2.94045e-17
3.375e-05
1.81684e-17
3.375e-05
8.99201e-18
3.375e-05
-1.13433e-18
3.375e-05
-1.51872e-17
3.375e-05
-3.73878e-17
3.375e-05
-7.47566e-17
3.375e-05
-1.3997e-16
3.375e-05
-2.5157e-16
3.375e-05
-4.33314e-16
3.375e-05
-7.31567e-16
-7.61507e-16
3.625e-05
7.37945e-16
3.625e-05
8.68409e-16
3.625e-05
6.12458e-16
3.625e-05
3.92916e-16
3.625e-05
2.40213e-16
3.625e-05
1.41333e-16
3.625e-05
8.29198e-17
3.625e-05
4.95985e-17
3.625e-05
3.03347e-17
3.625e-05
1.82439e-17
3.625e-05
9.02177e-18
3.625e-05
-4.25492e-19
3.625e-05
-1.29857e-17
3.625e-05
-3.26019e-17
3.625e-05
-6.57845e-17
3.625e-05
-1.24459e-16
3.625e-05
-2.2732e-16
3.625e-05
-3.98281e-16
3.625e-05
-6.96818e-16
-7.35229e-16
3.875e-05
7.62002e-16
3.875e-05
8.74688e-16
3.875e-05
5.8818e-16
3.875e-05
3.65363e-16
3.875e-05
2.19211e-16
3.875e-05
1.26877e-16
3.875e-05
7.33266e-17
3.875e-05
4.31694e-17
3.875e-05
2.59379e-17
3.875e-05
1.53667e-17
3.875e-05
7.60179e-18
3.875e-05
-2.89936e-20
3.875e-05
-9.95049e-18
3.875e-05
-2.53631e-17
3.875e-05
-5.16022e-17
3.875e-05
-9.8688e-17
3.875e-05
-1.83629e-16
3.875e-05
-3.28179e-16
3.875e-05
-6.02618e-16
-6.49914e-16
4.125e-05
6.73433e-16
4.125e-05
7.47085e-16
4.125e-05
4.66732e-16
4.125e-05
2.77276e-16
4.125e-05
1.62429e-16
4.125e-05
9.19236e-17
4.125e-05
5.22273e-17
4.125e-05
3.03408e-17
4.125e-05
1.8036e-17
4.125e-05
1.06013e-17
4.125e-05
5.26082e-18
4.125e-05
1.16418e-19
4.125e-05
-6.53149e-18
4.125e-05
-1.68607e-17
4.125e-05
-3.45697e-17
4.125e-05
-6.68521e-17
4.125e-05
-1.27147e-16
4.125e-05
-2.32209e-16
4.125e-05
-4.56721e-16
-5.10945e-16
4.375e-05
4.8192e-16
4.375e-05
5.04341e-16
4.375e-05
2.78672e-16
4.375e-05
1.56437e-16
4.375e-05
8.92082e-17
4.375e-05
4.90287e-17
4.375e-05
2.72999e-17
4.375e-05
1.56921e-17
4.375e-05
9.27413e-18
4.375e-05
5.45625e-18
4.375e-05
2.74059e-18
4.375e-05
1.27484e-19
4.375e-05
-3.29881e-18
4.375e-05
-8.6581e-18
4.375e-05
-1.78484e-17
4.375e-05
-3.49011e-17
4.375e-05
-6.82911e-17
4.375e-05
-1.2679e-16
4.375e-05
-2.7791e-16
-3.32546e-16
4.625e-05
2.12958e-16
4.625e-05
2.04191e-16
4.625e-05
9.10769e-17
4.625e-05
4.68703e-17
4.625e-05
2.62467e-17
4.625e-05
1.37598e-17
4.625e-05
7.45545e-18
4.625e-05
4.248e-18
4.625e-05
2.51228e-18
4.625e-05
1.51058e-18
4.625e-05
7.94453e-19
4.625e-05
8.96468e-20
4.625e-05
-8.99073e-19
4.625e-05
-2.47592e-18
4.625e-05
-5.12819e-18
4.625e-05
-1.01525e-17
4.625e-05
-2.06964e-17
4.625e-05
-3.82747e-17
4.625e-05
-1.01636e-16
-1.37654e-16
4.875e-05
4.875e-05
4.875e-05
4.875e-05
4.875e-05
4.875e-05
4.875e-05
4.875e-05
4.875e-05
4.875e-05
4.875e-05
4.875e-05
4.875e-05
4.875e-05
4.875e-05
4.875e-05
4.875e-05
4.875e-05
4.875e-05
)
;

boundaryField
{
    top
    {
        type            calculated;
        value           uniform 0;
    }
    bottom
    {
        type            calculated;
        value           uniform 0;
    }
    inlet
    {
        type            calculated;
        value           nonuniform List<scalar> 
20
(
-1.25e-06
-3.75e-06
-6.25e-06
-8.75e-06
-1.125e-05
-1.375e-05
-1.625e-05
-1.875e-05
-2.125e-05
-2.375e-05
-2.625e-05
-2.875e-05
-3.125e-05
-3.375e-05
-3.625e-05
-3.875e-05
-4.125e-05
-4.375e-05
-4.625e-05
-4.875e-05
)
;
    }
    outlet
    {
        type            calculated;
        value           nonuniform List<scalar> 
20
(
1.25e-06
3.75e-06
6.25e-06
8.75e-06
1.125e-05
1.375e-05
1.625e-05
1.875e-05
2.125e-05
2.375e-05
2.625e-05
2.875e-05
3.125e-05
3.375e-05
3.625e-05
3.875e-05
4.125e-05
4.375e-05
4.625e-05
4.875e-05
)
;
    }
    frontAndBack
    {
        type            empty;
        value           nonuniform List<scalar> 0();
    }
}


// ************************************************************************* //
