/*--------------------------------*- C++ -*----------------------------------*\
  =========                 |
  \\      /  F ield         | OpenFOAM: The Open Source CFD Toolbox
   \\    /   O peration     | Website:  https://openfoam.org
    \\  /    A nd           | Version:  9
     \\/     M anipulation  |
\*---------------------------------------------------------------------------*/
FoamFile
{
    format      ascii;
    class       volVectorField;
    location    "4.2";
    object      U;
}
// * * * * * * * * * * * * * * * * * * * * * * * * * * * * * * * * * * * * * //

dimensions      [0 1 -1 0 0 0 0];

internalField   nonuniform List<vector> 
400
(
(0.025 -1.24804e-12 0)
(0.025 -9.99183e-13 0)
(0.025 -4.2112e-13 0)
(0.025 -2.24661e-13 0)
(0.025 -1.23989e-13 0)
(0.025 -6.57325e-14 0)
(0.025 -3.54262e-14 0)
(0.025 -1.77238e-14 0)
(0.025 -7.98776e-15 0)
(0.025 -3.40308e-15 0)
(0.025 -1.22915e-15 0)
(0.025 1.8182e-16 0)
(0.025 1.64423e-15 0)
(0.025 4.14019e-15 0)
(0.025 9.8876e-15 0)
(0.025 2.62622e-14 0)
(0.025 6.5528e-14 0)
(0.025 1.56069e-13 0)
(0.025 5.48031e-13 0)
(0.025 6.42098e-13 0)
(0.075 -4.2955e-12 0)
(0.075 -3.81973e-12 0)
(0.075 -1.99528e-12 0)
(0.075 -1.14553e-12 0)
(0.075 -6.61607e-13 0)
(0.075 -3.67839e-13 0)
(0.075 -2.02221e-13 0)
(0.075 -1.0694e-13 0)
(0.075 -5.30231e-14 0)
(0.075 -2.40566e-14 0)
(0.075 -8.56835e-15 0)
(0.075 8.07098e-16 0)
(0.075 9.25396e-15 0)
(0.075 2.30244e-14 0)
(0.075 5.3946e-14 0)
(0.075 1.31976e-13 0)
(0.075 3.10327e-13 0)
(0.075 6.90421e-13 0)
(0.075 1.87364e-12 0)
(0.075 2.05636e-12 0)
(0.125 -7.8105e-12 0)
(0.125 -7.58512e-12 0)
(0.125 -4.58149e-12 0)
(0.125 -2.77209e-12 0)
(0.125 -1.65351e-12 0)
(0.125 -9.5081e-13 0)
(0.125 -5.34674e-13 0)
(0.125 -2.89734e-13 0)
(0.125 -1.48648e-13 0)
(0.125 -6.99778e-14 0)
(0.125 -2.64692e-14 0)
(0.125 -2.44224e-16 0)
(0.125 2.23058e-14 0)
(0.125 5.72291e-14 0)
(0.125 1.32642e-13 0)
(0.125 3.09915e-13 0)
(0.125 6.98252e-13 0)
(0.125 1.47328e-12 0)
(0.125 3.3145e-12 0)
(0.125 3.40893e-12 0)
(0.175 -1.07467e-11 0)
(0.175 -1.09911e-11 0)
(0.175 -7.24747e-12 0)
(0.175 -4.56512e-12 0)
(0.175 -2.79655e-12 0)
(0.175 -1.64433e-12 0)
(0.175 -9.38749e-13 0)
(0.175 -5.16387e-13 0)
(0.175 -2.69493e-13 0)
(0.175 -1.29199e-13 0)
(0.175 -5.07477e-14 0)
(0.175 -4.27447e-15 0)
(0.175 3.35515e-14 0)
(0.175 8.92388e-14 0)
(0.175 2.0651e-13 0)
(0.175 4.72013e-13 0)
(0.175 1.03518e-12 0)
(0.175 2.10127e-12 0)
(0.175 4.24365e-12 0)
(0.175 4.18692e-12 0)
(0.225 -1.26725e-11 0)
(0.225 -1.33543e-11 0)
(0.225 -9.3375e-12 0)
(0.225 -6.08249e-12 0)
(0.225 -3.81392e-12 0)
(0.225 -2.28538e-12 0)
(0.225 -1.32233e-12 0)
(0.225 -7.35339e-13 0)
(0.225 -3.8776e-13 0)
(0.225 -1.88271e-13 0)
(0.225 -7.66373e-14 0)
(0.225 -1.22396e-14 0)
(0.225 3.64654e-14 0)
(0.225 1.03583e-13 0)
(0.225 2.42141e-13 0)
(0.225 5.49779e-13 0)
(0.225 1.18862e-12 0)
(0.225 2.34258e-12 0)
(0.225 4.44081e-12 0)
(0.225 4.26457e-12 0)
(0.275 -1.34636e-11 0)
(0.275 -1.44382e-11 0)
(0.275 -1.05289e-11 0)
(0.275 -7.04891e-12 0)
(0.275 -4.50951e-12 0)
(0.275 -2.74541e-12 0)
(0.275 -1.60623e-12 0)
(0.275 -9.00196e-13 0)
(0.275 -4.77532e-13 0)
(0.275 -2.33609e-13 0)
(0.275 -9.80215e-14 0)
(0.275 -2.31102e-14 0)
(0.275 2.73902e-14 0)
(0.275 9.03033e-14 0)
(0.275 2.19322e-13 0)
(0.275 5.0711e-13 0)
(0.275 1.10281e-12 0)
(0.275 2.13994e-12 0)
(0.275 3.91774e-12 0)
(0.275 3.67824e-12 0)
(0.325 -1.31396e-11 0)
(0.325 -1.42263e-11 0)
(0.325 -1.07003e-11 0)
(0.325 -7.32199e-12 0)
(0.325 -4.76401e-12 0)
(0.325 -2.93879e-12 0)
(0.325 -1.73435e-12 0)
(0.325 -9.76569e-13 0)
(0.325 -5.18774e-13 0)
(0.325 -2.5416e-13 0)
(0.325 -1.09376e-13 0)
(0.325 -3.48345e-14 0)
(0.325 5.86407e-15 0)
(0.325 4.66506e-14 0)
(0.325 1.33245e-13 0)
(0.325 3.39314e-13 0)
(0.325 7.82601e-13 0)
(0.325 1.53457e-12 0)
(0.325 2.79669e-12 0)
(0.325 2.54247e-12 0)
(0.375 -1.17966e-11 0)
(0.375 -1.28148e-11 0)
(0.375 -9.86528e-12 0)
(0.375 -6.86741e-12 0)
(0.375 -4.53218e-12 0)
(0.375 -2.82614e-12 0)
(0.375 -1.67806e-12 0)
(0.375 -9.4567e-13 0)
(0.375 -4.99948e-13 0)
(0.375 -2.43131e-13 0)
(0.375 -1.06747e-13 0)
(0.375 -4.48528e-14 0)
(0.375 -2.56927e-14 0)
(0.375 -2.35175e-14 0)
(0.375 -7.76249e-15 0)
(0.375 6.59571e-14 0)
(0.375 2.72011e-13 0)
(0.375 6.20197e-13 0)
(0.375 1.23803e-12 0)
(0.375 1.00006e-12 0)
(0.425 -9.60464e-12 0)
(0.425 -1.03942e-11 0)
(0.425 -8.14694e-12 0)
(0.425 -5.74904e-12 0)
(0.425 -3.84191e-12 0)
(0.425 -2.41758e-12 0)
(0.425 -1.44e-12 0)
(0.425 -8.07545e-13 0)
(0.425 -4.20407e-13 0)
(0.425 -1.99638e-13 0)
(0.425 -8.88258e-14 0)
(0.425 -5.08541e-14 0)
(0.425 -6.28294e-14 0)
(0.425 -1.11107e-13 0)
(0.425 -1.85226e-13 0)
(0.425 -2.76242e-13 0)
(0.425 -3.59179e-13 0)
(0.425 -4.80894e-13 0)
(0.425 -5.74697e-13 0)
(0.425 -7.83062e-13 0)
(0.475 -6.78766e-12 0)
(0.475 -7.22451e-12 0)
(0.475 -5.75466e-12 0)
(0.475 -4.11196e-12 0)
(0.475 -2.7858e-12 0)
(0.475 -1.76892e-12 0)
(0.475 -1.05289e-12 0)
(0.475 -5.80977e-13 0)
(0.475 -2.9066e-13 0)
(0.475 -1.29019e-13 0)
(0.475 -5.73691e-14 0)
(0.475 -5.14992e-14 0)
(0.475 -1.0012e-13 0)
(0.475 -2.03856e-13 0)
(0.475 -3.74655e-13 0)
(0.475 -6.40823e-13 0)
(0.475 -1.02868e-12 0)
(0.475 -1.63478e-12 0)
(0.475 -2.45355e-12 0)
(0.475 -2.63461e-12 0)
(0.525 -3.6091e-12 0)
(0.525 -3.61592e-12 0)
(0.525 -2.95989e-12 0)
(0.525 -2.16205e-12 0)
(0.525 -1.50633e-12 0)
(0.525 -9.72523e-13 0)
(0.525 -5.73877e-13 0)
(0.525 -3.0027e-13 0)
(0.525 -1.30585e-13 0)
(0.525 -4.20963e-14 0)
(0.525 -1.71937e-14 0)
(0.525 -4.67168e-14 0)
(0.525 -1.3208e-13 0)
(0.525 -2.88573e-13 0)
(0.525 -5.49751e-13 0)
(0.525 -9.79228e-13 0)
(0.525 -1.65286e-12 0)
(0.525 -2.71042e-12 0)
(0.525 -4.21798e-12 0)
(0.525 -4.38568e-12 0)
(0.575 -3.54811e-13 0)
(0.575 9.05964e-14 0)
(0.575 -7.31745e-14 0)
(0.575 -1.42927e-13 0)
(0.575 -1.77112e-13 0)
(0.575 -1.43428e-13 0)
(0.575 -7.5436e-14 0)
(0.575 -9.37007e-15 0)
(0.575 3.409e-14 0)
(0.575 4.6824e-14 0)
(0.575 2.48523e-14 0)
(0.575 -3.7637e-14 0)
(0.575 -1.54344e-13 0)
(0.575 -3.53256e-13 0)
(0.575 -6.86315e-13 0)
(0.575 -1.24717e-12 0)
(0.575 -2.15611e-12 0)
(0.575 -3.59025e-12 0)
(0.575 -5.70498e-12 0)
(0.575 -5.88093e-12 0)
(0.625 2.68072e-12 0)
(0.625 3.54001e-12 0)
(0.625 2.57987e-12 0)
(0.625 1.68941e-12 0)
(0.625 1.01966e-12 0)
(0.625 5.97692e-13 0)
(0.625 3.66502e-13 0)
(0.625 2.45832e-13 0)
(0.625 1.76584e-13 0)
(0.625 1.22731e-13 0)
(0.625 6.13327e-14 0)
(0.625 -2.64745e-14 0)
(0.625 -1.64066e-13 0)
(0.625 -3.8869e-13 0)
(0.625 -7.65426e-13 0)
(0.625 -1.40982e-12 0)
(0.625 -2.47801e-12 0)
(0.625 -4.17855e-12 0)
(0.625 -6.77642e-12 0)
(0.625 -6.98563e-12 0)
(0.675 5.21294e-12 0)
(0.675 6.38352e-12 0)
(0.675 4.68494e-12 0)
(0.675 3.09608e-12 0)
(0.675 1.91815e-12 0)
(0.675 1.14379e-12 0)
(0.675 6.85979e-13 0)
(0.675 4.26135e-13 0)
(0.675 2.74263e-13 0)
(0.675 1.72991e-13 0)
(0.675 8.57328e-14 0)
(0.675 -1.55888e-14 0)
(0.675 -1.60053e-13 0)
(0.675 -3.89885e-13 0)
(0.675 -7.76142e-13 0)
(0.675 -1.44572e-12 0)
(0.675 -2.57909e-12 0)
(0.675 -4.40826e-12 0)
(0.675 -7.3256e-12 0)
(0.675 -7.59311e-12 0)
(0.725 6.98108e-12 0)
(0.725 8.30004e-12 0)
(0.725 5.9724e-12 0)
(0.725 3.88755e-12 0)
(0.725 2.39654e-12 0)
(0.725 1.42062e-12 0)
(0.725 8.39864e-13 0)
(0.725 5.07069e-13 0)
(0.725 3.13514e-13 0)
(0.725 1.90347e-13 0)
(0.725 9.41865e-14 0)
(0.725 -6.86101e-15 0)
(0.725 -1.43158e-13 0)
(0.725 -3.56733e-13 0)
(0.725 -7.16984e-13 0)
(0.725 -1.34982e-12 0)
(0.725 -2.44558e-12 0)
(0.725 -4.24761e-12 0)
(0.725 -7.28347e-12 0)
(0.725 -7.63067e-12 0)
(0.775 7.77508e-12 0)
(0.775 9.02728e-12 0)
(0.775 6.25349e-12 0)
(0.775 3.96018e-12 0)
(0.775 2.40262e-12 0)
(0.775 1.40416e-12 0)
(0.775 8.17958e-13 0)
(0.775 4.84877e-13 0)
(0.775 2.93248e-13 0)
(0.775 1.74595e-13 0)
(0.775 8.63715e-14 0)
(0.775 -1.35014e-15 0)
(0.775 -1.15968e-13 0)
(0.775 -2.94122e-13 0)
(0.775 -5.9647e-13 0)
(0.775 -1.1352e-12 0)
(0.775 -2.09318e-12 0)
(0.775 -3.70539e-12 0)
(0.775 -6.62669e-12 0)
(0.775 -7.06705e-12 0)
(0.825 7.43543e-12 0)
(0.825 8.38637e-12 0)
(0.825 5.47061e-12 0)
(0.825 3.33018e-12 0)
(0.825 1.97492e-12 0)
(0.825 1.13088e-12 0)
(0.825 6.47866e-13 0)
(0.825 3.78408e-13 0)
(0.825 2.25688e-13 0)
(0.825 1.32903e-13 0)
(0.825 6.58678e-14 0)
(0.825 1.1318e-15 0)
(0.825 -8.23004e-14 0)
(0.825 -2.11695e-13 0)
(0.825 -4.32947e-13 0)
(0.825 -8.33491e-13 0)
(0.825 -1.56883e-12 0)
(0.825 -2.83774e-12 0)
(0.825 -5.38214e-12 0)
(0.825 -5.91256e-12 0)
(0.875 5.93838e-12 0)
(0.875 6.40596e-12 0)
(0.875 3.79131e-12 0)
(0.875 2.18765e-12 0)
(0.875 1.26198e-12 0)
(0.875 7.03482e-13 0)
(0.875 3.95283e-13 0)
(0.875 2.28014e-13 0)
(0.875 1.34821e-13 0)
(0.875 7.90369e-14 0)
(0.875 3.93532e-14 0)
(0.875 1.39648e-15 0)
(0.875 -4.77897e-14 0)
(0.875 -1.2439e-13 0)
(0.875 -2.55701e-13 0)
(0.875 -4.97481e-13 0)
(0.875 -9.6036e-13 0)
(0.875 -1.77395e-12 0)
(0.875 -3.67561e-12 0)
(0.875 -4.2488e-12 0)
(0.925 3.52616e-12 0)
(0.925 3.5511e-12 0)
(0.925 1.78412e-12 0)
(0.925 9.47288e-13 0)
(0.925 5.2879e-13 0)
(0.925 2.82725e-13 0)
(0.925 1.54515e-13 0)
(0.925 8.8072e-14 0)
(0.925 5.19501e-14 0)
(0.925 3.07967e-14 0)
(0.925 1.57602e-14 0)
(0.925 1.13931e-15 0)
(0.925 -1.85724e-14 0)
(0.925 -4.97111e-14 0)
(0.925 -1.03065e-13 0)
(0.925 -2.03557e-13 0)
(0.925 -4.07536e-13 0)
(0.925 -7.64415e-13 0)
(0.925 -1.83715e-12 0)
(0.925 -2.31726e-12 0)
(0.975 1.08968e-12 0)
(0.975 1.01917e-12 0)
(0.975 4.07925e-13 0)
(0.975 1.90018e-13 0)
(0.975 1.01942e-13 0)
(0.975 5.07764e-14 0)
(0.975 2.65859e-14 0)
(0.975 1.49778e-14 0)
(0.975 8.8276e-15 0)
(0.975 5.29518e-15 0)
(0.975 2.75227e-15 0)
(0.975 1.55985e-16 0)
(0.975 -3.78779e-15 0)
(0.975 -1.01914e-14 0)
(0.975 -2.0591e-14 0)
(0.975 -4.05837e-14 0)
(0.975 -8.54688e-14 0)
(0.975 -1.60615e-13 0)
(0.975 -4.78987e-13 0)
(0.975 -6.68878e-13 0)
)
;

boundaryField
{
    top
    {
        type            fixedValue;
        value           uniform (1 0 0);
    }
    bottom
    {
        type            fixedValue;
        value           uniform (0 0 0);
    }
    inlet
    {
        type            zeroGradient;
    }
    outlet
    {
        type            zeroGradient;
    }
    frontAndBack
    {
        type            empty;
    }
}


// ************************************************************************* //
