/*--------------------------------*- C++ -*----------------------------------*\
  =========                 |
  \\      /  F ield         | OpenFOAM: The Open Source CFD Toolbox
   \\    /   O peration     | Website:  https://openfoam.org
    \\  /    A nd           | Version:  9
     \\/     M anipulation  |
\*---------------------------------------------------------------------------*/
FoamFile
{
    format      ascii;
    class       volScalarField;
    location    "3.5";
    object      p;
}
// * * * * * * * * * * * * * * * * * * * * * * * * * * * * * * * * * * * * * //

dimensions      [0 2 -2 0 0 0 0];

internalField   nonuniform List<scalar> 
400
(
3.49915e-10
5.79911e-10
5.6075e-10
5.33381e-10
4.88438e-10
4.35211e-10
3.79761e-10
3.23345e-10
2.66905e-10
2.10913e-10
1.55117e-10
9.91585e-11
4.29094e-11
-1.36053e-11
-7.03268e-11
-1.27363e-10
-1.83245e-10
-2.33952e-10
-2.9801e-10
-1.88275e-10
3.3186e-10
5.52505e-10
5.31657e-10
5.15956e-10
4.77874e-10
4.28843e-10
3.76078e-10
3.21287e-10
2.65799e-10
2.10359e-10
1.54882e-10
9.91275e-11
4.30665e-11
-1.31646e-11
-6.92972e-11
-1.2514e-10
-1.78528e-10
-2.23112e-10
-2.90926e-10
-1.83454e-10
3.3553e-10
5.54914e-10
5.15381e-10
5.04725e-10
4.70325e-10
4.23853e-10
3.73e-10
3.19463e-10
2.64746e-10
2.09763e-10
1.54564e-10
9.90042e-11
4.31215e-11
-1.2874e-11
-6.85848e-11
-1.23747e-10
-1.76116e-10
-2.17838e-10
-3.00288e-10
-1.90202e-10
3.48411e-10
5.79099e-10
5.11952e-10
4.99985e-10
4.66245e-10
4.20618e-10
3.7077e-10
3.18003e-10
2.63799e-10
2.09143e-10
1.54166e-10
9.87753e-11
4.30385e-11
-1.28075e-11
-6.8332e-11
-1.23396e-10
-1.76128e-10
-2.18217e-10
-3.19233e-10
-2.00647e-10
3.62521e-10
6.12608e-10
5.15172e-10
4.98906e-10
4.6425e-10
4.18477e-10
3.69069e-10
3.1675e-10
2.6289e-10
2.08486e-10
1.537e-10
9.84592e-11
4.28343e-11
-1.29355e-11
-6.84461e-11
-1.23765e-10
-1.77596e-10
-2.21321e-10
-3.40426e-10
-2.10574e-10
3.75549e-10
6.48817e-10
5.21688e-10
4.9981e-10
4.63502e-10
4.16994e-10
3.67666e-10
3.156e-10
2.61988e-10
2.07793e-10
1.5318e-10
9.80735e-11
4.25323e-11
-1.32133e-11
-6.88118e-11
-1.24555e-10
-1.79755e-10
-2.25379e-10
-3.59864e-10
-2.1865e-10
3.87042e-10
6.84059e-10
5.29588e-10
5.01671e-10
4.6342e-10
4.15878e-10
3.66413e-10
3.14492e-10
2.6108e-10
2.07075e-10
1.52624e-10
9.76389e-11
4.21614e-11
-1.35883e-11
-6.93152e-11
-1.25504e-10
-1.82056e-10
-2.29317e-10
-3.75511e-10
-2.24643e-10
3.96543e-10
7.1533e-10
5.37323e-10
5.03593e-10
4.63483e-10
4.14862e-10
3.65183e-10
3.13371e-10
2.60154e-10
2.06338e-10
1.52048e-10
9.71795e-11
4.17594e-11
-1.3995e-11
-6.98291e-11
-1.26359e-10
-1.84001e-10
-2.32332e-10
-3.85952e-10
-2.28329e-10
4.03767e-10
7.40291e-10
5.4364e-10
5.04879e-10
4.63279e-10
4.13745e-10
3.63887e-10
3.12208e-10
2.59206e-10
2.05594e-10
1.51472e-10
9.67231e-11
4.13691e-11
-1.43622e-11
-7.02297e-11
-1.26897e-10
-1.85187e-10
-2.33832e-10
-3.90385e-10
-2.29646e-10
4.085e-10
7.57231e-10
5.47678e-10
5.05084e-10
4.62565e-10
4.1243e-10
3.62503e-10
3.11008e-10
2.58252e-10
2.04862e-10
1.50916e-10
9.6298e-11
4.10316e-11
-1.46263e-11
-7.04136e-11
-1.26951e-10
-1.85338e-10
-2.33476e-10
-3.88512e-10
-2.2861e-10
4.10586e-10
7.6504e-10
5.48958e-10
5.04035e-10
4.61276e-10
4.10928e-10
3.6107e-10
3.09813e-10
2.57328e-10
2.04169e-10
1.50405e-10
9.59288e-11
4.0779e-11
-1.47414e-11
-7.03159e-11
-1.26433e-10
-1.84323e-10
-2.31159e-10
-3.8048e-10
-2.25323e-10
4.09888e-10
7.63174e-10
5.47377e-10
5.01814e-10
4.59514e-10
4.0935e-10
3.59688e-10
3.08699e-10
2.56485e-10
2.03548e-10
1.4996e-10
9.56334e-11
4.06295e-11
-1.46885e-11
-6.99198e-11
-1.25341e-10
-1.82162e-10
-2.2699e-10
-3.6681e-10
-2.19936e-10
4.0628e-10
7.51686e-10
5.43221e-10
4.98748e-10
4.57528e-10
4.07887e-10
3.58496e-10
3.07762e-10
2.55784e-10
2.03036e-10
1.49601e-10
9.54205e-11
4.05834e-11
-1.44801e-11
-6.92626e-11
-1.23766e-10
-1.79024e-10
-2.2129e-10
-3.48365e-10
-2.12664e-10
3.99721e-10
7.31331e-10
5.37187e-10
4.95399e-10
4.55687e-10
4.06782e-10
3.57654e-10
3.07103e-10
2.55285e-10
2.02666e-10
1.49344e-10
9.52899e-11
4.06231e-11
-1.41622e-11
-6.84383e-11
-1.21892e-10
-1.75235e-10
-2.14581e-10
-3.26346e-10
-2.03798e-10
3.9023e-10
7.03649e-10
5.30427e-10
4.92519e-10
4.54447e-10
4.06293e-10
3.57312e-10
3.06807e-10
2.55036e-10
2.0246e-10
1.49193e-10
9.52302e-11
4.07133e-11
-1.38076e-11
-6.75874e-11
-1.19983e-10
-1.71253e-10
-2.07586e-10
-3.02287e-10
-1.9372e-10
3.78074e-10
6.7113e-10
5.24448e-10
4.90989e-10
4.54272e-10
4.06654e-10
3.5758e-10
3.06929e-10
2.55062e-10
2.02428e-10
1.49145e-10
9.52213e-11
4.08081e-11
-1.35077e-11
-6.68819e-11
-1.1836e-10
-1.67646e-10
-2.01179e-10
-2.78055e-10
-1.82928e-10
3.63455e-10
6.372e-10
5.21205e-10
4.91694e-10
4.5559e-10
4.08022e-10
3.58507e-10
3.07475e-10
2.55355e-10
2.02559e-10
1.49185e-10
9.52366e-11
4.08555e-11
-1.33629e-11
-6.6506e-11
-1.17372e-10
-1.65056e-10
-1.96422e-10
-2.55847e-10
-1.71958e-10
3.48505e-10
6.08565e-10
5.23994e-10
4.96044e-10
4.58954e-10
4.10607e-10
3.60147e-10
3.08449e-10
2.55908e-10
2.02841e-10
1.49298e-10
9.52468e-11
4.07925e-11
-1.34938e-11
-6.66811e-11
-1.17446e-10
-1.64362e-10
-1.95016e-10
-2.39309e-10
-1.62283e-10
3.40033e-10
5.97772e-10
5.3891e-10
5.06355e-10
4.65338e-10
4.14752e-10
3.62618e-10
3.09885e-10
2.56733e-10
2.03284e-10
1.49486e-10
9.52366e-11
4.05747e-11
-1.40027e-11
-6.76319e-11
-1.19086e-10
-1.66725e-10
-1.99689e-10
-2.34872e-10
-1.58457e-10
3.50556e-10
6.15823e-10
5.65948e-10
5.22202e-10
4.74232e-10
4.20005e-10
3.6561e-10
3.11596e-10
2.57718e-10
2.03826e-10
1.49722e-10
9.52059e-11
4.02358e-11
-1.4806e-11
-6.92121e-11
-1.22054e-10
-1.71989e-10
-2.1029e-10
-2.46433e-10
-1.67275e-10
)
;

boundaryField
{
    top
    {
        type            zeroGradient;
    }
    bottom
    {
        type            zeroGradient;
    }
    inlet
    {
        type            fixedValue;
        value           uniform 0;
    }
    outlet
    {
        type            fixedValue;
        value           uniform 0;
    }
    frontAndBack
    {
        type            empty;
    }
}


// ************************************************************************* //
