/*--------------------------------*- C++ -*----------------------------------*\
  =========                 |
  \\      /  F ield         | OpenFOAM: The Open Source CFD Toolbox
   \\    /   O peration     | Website:  https://openfoam.org
    \\  /    A nd           | Version:  9
     \\/     M anipulation  |
\*---------------------------------------------------------------------------*/
FoamFile
{
    format      ascii;
    class       surfaceScalarField;
    location    "3.5";
    object      phi;
}
// * * * * * * * * * * * * * * * * * * * * * * * * * * * * * * * * * * * * * //

dimensions      [0 3 -1 0 0 0 0];

internalField   nonuniform List<scalar> 
760
(
1.25e-06
-2.14314e-15
1.25e-06
-1.78351e-15
1.25e-06
-8.49539e-16
1.25e-06
-4.83081e-16
1.25e-06
-2.77303e-16
1.25e-06
-1.524e-16
1.25e-06
-8.3523e-17
1.25e-06
-4.37404e-17
1.25e-06
-2.13557e-17
1.25e-06
-9.727e-18
1.25e-06
-3.65289e-18
1.25e-06
8.00915e-20
1.25e-06
3.51465e-18
1.25e-06
9.08412e-18
1.25e-06
2.1527e-17
1.25e-06
5.43578e-17
1.25e-06
1.29615e-16
1.25e-06
2.89804e-16
1.25e-06
9.1289e-16
1.05374e-15
3.75e-06
-5.15917e-15
3.75e-06
-4.83459e-15
3.75e-06
-2.76415e-15
3.75e-06
-1.64511e-15
3.75e-06
-9.70828e-16
3.75e-06
-5.52407e-16
3.75e-06
-3.0857e-16
3.75e-06
-1.66141e-16
3.75e-06
-8.45383e-17
3.75e-06
-3.94565e-17
3.75e-06
-1.47153e-17
3.75e-06
1.77253e-19
3.75e-06
1.31078e-17
3.75e-06
3.34029e-17
3.75e-06
7.77597e-17
3.75e-06
1.84702e-16
3.75e-06
4.23329e-16
3.75e-06
9.08963e-16
3.75e-06
2.21533e-15
2.34121e-15
6.25e-06
-7.84689e-15
6.25e-06
-7.87248e-15
6.25e-06
-5.00437e-15
6.25e-06
-3.09897e-15
6.25e-06
-1.87789e-15
6.25e-06
-1.09443e-15
6.25e-06
-6.2112e-16
6.25e-06
-3.39738e-16
6.25e-06
-1.76181e-16
6.25e-06
-8.38337e-17
6.25e-06
-3.23954e-17
6.25e-06
-1.79594e-18
6.25e-06
2.36022e-17
6.25e-06
6.17889e-17
6.25e-06
1.4312e-16
6.25e-06
3.30408e-16
6.25e-06
7.33664e-16
6.25e-06
1.51755e-15
6.25e-06
3.21444e-15
3.21684e-15
8.75e-06
-9.85936e-15
8.75e-06
-1.02689e-14
8.75e-06
-6.98973e-15
8.75e-06
-4.48504e-15
8.75e-06
-2.78347e-15
8.75e-06
-1.65443e-15
8.75e-06
-9.5185e-16
8.75e-06
-5.26847e-16
8.75e-06
-2.7653e-16
8.75e-06
-1.33477e-16
8.75e-06
-5.34764e-17
8.75e-06
-6.84148e-18
8.75e-06
2.95964e-17
8.75e-06
8.13698e-17
8.75e-06
1.893e-16
8.75e-06
4.31159e-16
8.75e-06
9.38824e-16
8.75e-06
1.87729e-15
8.75e-06
3.67131e-15
3.56061e-15
1.125e-05
-1.09911e-14
1.125e-05
-1.17034e-14
1.125e-05
-8.36212e-15
1.125e-05
-5.52597e-15
1.125e-05
-3.50231e-15
1.125e-05
-2.11662e-15
1.125e-05
-1.23207e-15
1.125e-05
-6.88e-16
1.125e-05
-3.63887e-16
1.125e-05
-1.77325e-16
1.125e-05
-7.33477e-17
1.125e-05
-1.47528e-17
1.125e-05
2.70393e-17
1.125e-05
8.1862e-17
1.125e-05
1.94692e-16
1.125e-05
4.45748e-16
1.125e-05
9.66212e-16
1.125e-05
1.89001e-15
1.125e-05
3.52439e-15
3.34065e-15
1.375e-05
-1.11875e-14
1.375e-05
-1.20667e-14
1.375e-05
-8.93325e-15
1.375e-05
-6.04645e-15
1.375e-05
-3.90147e-15
1.375e-05
-2.39122e-15
1.375e-05
-1.40518e-15
1.375e-05
-7.89374e-16
1.375e-05
-4.18952e-16
1.375e-05
-2.05023e-16
1.375e-05
-8.71208e-17
1.375e-05
-2.4243e-17
1.375e-05
1.42174e-17
1.375e-05
5.79941e-17
1.375e-05
1.4898e-16
1.375e-05
3.5723e-16
1.375e-05
7.95271e-16
1.375e-05
1.54894e-15
1.375e-05
2.83002e-15
2.61655e-15
1.625e-05
-1.04857e-14
1.625e-05
-1.13808e-14
1.625e-05
-8.65279e-15
1.625e-05
-5.96917e-15
1.625e-05
-3.91045e-15
1.625e-05
-2.42482e-15
1.625e-05
-1.43516e-15
1.625e-05
-8.08348e-16
1.625e-05
-4.28315e-16
1.625e-05
-2.08995e-16
1.625e-05
-9.07737e-17
1.625e-05
-3.33646e-17
1.625e-05
-8.08506e-18
1.625e-05
1.01765e-17
1.625e-05
5.35003e-17
1.625e-05
1.71621e-16
1.625e-05
4.45482e-16
1.625e-05
9.08911e-16
1.625e-05
1.70029e-15
1.48964e-15
1.875e-05
-8.9991e-15
1.875e-05
-9.76651e-15
1.875e-05
-7.57734e-15
1.875e-05
-5.30661e-15
1.875e-05
-3.52193e-15
1.875e-05
-2.20515e-15
1.875e-05
-1.31104e-15
1.875e-05
-7.37072e-16
1.875e-05
-3.86864e-16
1.875e-05
-1.86028e-16
1.875e-05
-8.20952e-17
1.875e-05
-4.00924e-17
1.875e-05
-3.69899e-17
1.875e-05
-5.61893e-17
1.875e-05
-8.04899e-17
1.875e-05
-8.74481e-17
1.875e-05
-3.52156e-17
1.875e-05
6.02489e-17
1.875e-05
2.80311e-16
9.10403e-17
2.125e-05
-6.89283e-15
2.125e-05
-7.41316e-15
2.125e-05
-5.84718e-15
2.125e-05
-4.1468e-15
2.125e-05
-2.78683e-15
2.125e-05
-1.76007e-15
2.125e-05
-1.04781e-15
2.125e-05
-5.83513e-16
2.125e-05
-2.98763e-16
2.125e-05
-1.38018e-16
2.125e-05
-6.13229e-17
2.125e-05
-4.2908e-17
2.125e-05
-6.83206e-17
2.125e-05
-1.32109e-16
2.125e-05
-2.3493e-16
2.125e-05
-3.84957e-16
2.125e-05
-5.82826e-16
2.125e-05
-8.89027e-16
2.125e-05
-1.27401e-15
-1.43757e-15
2.375e-05
-4.37201e-15
2.375e-05
-4.56048e-15
2.375e-05
-3.66447e-15
2.375e-05
-2.63743e-15
2.375e-05
-1.80405e-15
2.375e-05
-1.15198e-15
2.375e-05
-6.83312e-16
2.375e-05
-3.70029e-16
2.375e-05
-1.76806e-16
2.375e-05
-7.17718e-17
2.375e-05
-3.12266e-17
2.375e-05
-4.12079e-17
2.375e-05
-9.74944e-17
2.375e-05
-2.06864e-16
2.375e-05
-3.88428e-16
2.375e-05
-6.8098e-16
2.375e-05
-1.12751e-15
2.375e-05
-1.82753e-15
2.375e-05
-2.80767e-15
-2.95253e-15
2.625e-05
-1.66736e-15
2.625e-05
-1.48194e-15
2.625e-05
-1.2738e-15
2.625e-05
-9.67485e-16
2.625e-05
-7.06511e-16
2.625e-05
-4.68119e-16
2.625e-05
-2.72117e-16
2.625e-05
-1.2956e-16
2.625e-05
-4.0176e-17
2.625e-05
2.15545e-18
2.625e-05
3.30284e-18
2.625e-05
-3.54492e-17
2.625e-05
-1.20375e-16
2.625e-05
-2.69828e-16
2.625e-05
-5.19738e-16
2.625e-05
-9.36441e-16
2.625e-05
-1.60232e-15
2.625e-05
-2.65075e-15
2.625e-05
-4.17646e-15
-4.31772e-15
2.875e-05
9.77561e-16
2.875e-05
1.53017e-15
2.875e-05
1.05737e-15
2.875e-05
6.53022e-16
2.875e-05
3.56124e-16
2.875e-05
1.92387e-16
2.875e-05
1.2337e-16
2.875e-05
1.00107e-16
2.875e-05
8.89966e-17
2.875e-05
7.14392e-17
2.875e-05
3.62765e-17
2.875e-05
-2.70066e-17
2.875e-05
-1.33881e-16
2.875e-05
-3.12082e-16
2.875e-05
-6.10748e-16
2.875e-05
-1.11798e-15
2.875e-05
-1.95e-15
2.875e-05
-3.26904e-15
2.875e-05
-5.25385e-15
-5.41125e-15
3.125e-05
3.31877e-15
3.125e-05
4.17985e-15
3.125e-05
3.06011e-15
3.125e-05
2.0158e-15
3.125e-05
1.23755e-15
3.125e-05
7.33671e-16
3.125e-05
4.43484e-16
3.125e-05
2.83153e-16
3.125e-05
1.89911e-16
3.125e-05
1.24473e-16
3.125e-05
6.18315e-17
3.125e-05
-1.77664e-17
3.125e-05
-1.36359e-16
3.125e-05
-3.27632e-16
3.125e-05
-6.48827e-16
3.125e-05
-1.20189e-15
3.125e-05
-2.12852e-15
3.125e-05
-3.61395e-15
3.125e-05
-5.93684e-15
-6.13159e-15
3.375e-05
5.12825e-15
3.375e-05
6.1859e-15
3.375e-05
4.48821e-15
3.375e-05
2.94062e-15
3.375e-05
1.81652e-15
3.375e-05
1.07953e-15
3.375e-05
6.42283e-16
3.375e-05
3.92812e-16
3.375e-05
2.47342e-16
3.375e-05
1.52868e-16
3.375e-05
7.56072e-17
3.375e-05
-9.52472e-18
3.375e-05
-1.27675e-16
3.375e-05
-3.14328e-16
3.375e-05
-6.28651e-16
3.375e-05
-1.17694e-15
3.375e-05
-2.11544e-15
3.375e-05
-3.64373e-15
3.375e-05
-6.15163e-15
-6.40341e-15
3.625e-05
6.20516e-15
3.625e-05
7.30215e-15
3.625e-05
5.14996e-15
3.625e-05
3.30391e-15
3.625e-05
2.02004e-15
3.625e-05
1.18865e-15
3.625e-05
6.97434e-16
3.625e-05
4.17223e-16
3.625e-05
2.55164e-16
3.625e-05
1.53462e-16
3.625e-05
7.58866e-17
3.625e-05
-3.52729e-18
3.625e-05
-1.09216e-16
3.625e-05
-2.74165e-16
3.625e-05
-5.53157e-16
3.625e-05
-1.04657e-15
3.625e-05
-1.91156e-15
3.625e-05
-3.34908e-15
3.625e-05
-5.85941e-15
-6.18243e-15
3.875e-05
6.4075e-15
3.875e-05
7.35502e-15
3.875e-05
4.94578e-15
3.875e-05
3.07222e-15
3.875e-05
1.84339e-15
3.875e-05
1.06712e-15
3.875e-05
6.16666e-16
3.875e-05
3.63062e-16
3.875e-05
2.18179e-16
3.875e-05
1.29298e-16
3.875e-05
6.4027e-17
3.875e-05
-1.36406e-19
3.875e-05
-8.36811e-17
3.875e-05
-2.13347e-16
3.875e-05
-4.33902e-16
3.875e-05
-8.29905e-16
3.875e-05
-1.54415e-15
3.875e-05
-2.75954e-15
3.875e-05
-5.06728e-15
-5.46502e-15
4.125e-05
5.66269e-15
4.125e-05
6.28214e-15
4.125e-05
3.92457e-15
4.125e-05
2.33148e-15
4.125e-05
1.36587e-15
4.125e-05
7.73184e-16
4.125e-05
4.39271e-16
4.125e-05
2.55171e-16
4.125e-05
1.51616e-16
4.125e-05
8.92001e-17
4.125e-05
4.43743e-17
4.125e-05
1.10704e-18
4.125e-05
-5.49033e-17
4.125e-05
-1.41889e-16
4.125e-05
-2.90656e-16
4.125e-05
-5.62167e-16
4.125e-05
-1.06927e-15
4.125e-05
-1.95258e-15
4.125e-05
-3.84043e-15
-4.29639e-15
4.375e-05
4.0523e-15
4.375e-05
4.24091e-15
4.375e-05
2.34336e-15
4.375e-05
1.31539e-15
4.375e-05
7.50203e-16
4.375e-05
4.1243e-16
4.375e-05
2.29648e-16
4.375e-05
1.31944e-16
4.375e-05
7.79066e-17
4.375e-05
4.58655e-17
4.375e-05
2.31362e-17
4.375e-05
1.16706e-18
4.375e-05
-2.77077e-17
4.375e-05
-7.27872e-17
4.375e-05
-1.50125e-16
4.375e-05
-2.93548e-16
4.375e-05
-5.74229e-16
4.375e-05
-1.06615e-15
4.375e-05
-2.33684e-15
-2.79622e-15
4.625e-05
1.79079e-15
4.625e-05
1.71703e-15
4.625e-05
7.66013e-16
4.625e-05
3.94032e-16
4.625e-05
2.20689e-16
4.625e-05
1.15722e-16
4.625e-05
6.269e-17
4.625e-05
3.57257e-17
4.625e-05
2.11533e-17
4.625e-05
1.26765e-17
4.625e-05
6.73873e-18
4.625e-05
8.10102e-19
4.625e-05
-7.55575e-18
4.625e-05
-2.07846e-17
4.625e-05
-4.31848e-17
4.625e-05
-8.5357e-17
4.625e-05
-1.74042e-16
4.625e-05
-3.21875e-16
4.625e-05
-8.54637e-16
-1.15743e-15
4.875e-05
4.875e-05
4.875e-05
4.875e-05
4.875e-05
4.875e-05
4.875e-05
4.875e-05
4.875e-05
4.875e-05
4.875e-05
4.875e-05
4.875e-05
4.875e-05
4.875e-05
4.875e-05
4.875e-05
4.875e-05
4.875e-05
)
;

boundaryField
{
    top
    {
        type            calculated;
        value           uniform 0;
    }
    bottom
    {
        type            calculated;
        value           uniform 0;
    }
    inlet
    {
        type            calculated;
        value           nonuniform List<scalar> 
20
(
-1.25e-06
-3.75e-06
-6.25e-06
-8.75e-06
-1.125e-05
-1.375e-05
-1.625e-05
-1.875e-05
-2.125e-05
-2.375e-05
-2.625e-05
-2.875e-05
-3.125e-05
-3.375e-05
-3.625e-05
-3.875e-05
-4.125e-05
-4.375e-05
-4.625e-05
-4.875e-05
)
;
    }
    outlet
    {
        type            calculated;
        value           nonuniform List<scalar> 
20
(
1.25e-06
3.75e-06
6.25e-06
8.75e-06
1.125e-05
1.375e-05
1.625e-05
1.875e-05
2.125e-05
2.375e-05
2.625e-05
2.875e-05
3.125e-05
3.375e-05
3.625e-05
3.875e-05
4.125e-05
4.375e-05
4.625e-05
4.875e-05
)
;
    }
    frontAndBack
    {
        type            empty;
        value           nonuniform List<scalar> 0();
    }
}


// ************************************************************************* //
