/*--------------------------------*- C++ -*----------------------------------*\
  =========                 |
  \\      /  F ield         | OpenFOAM: The Open Source CFD Toolbox
   \\    /   O peration     | Website:  https://openfoam.org
    \\  /    A nd           | Version:  9
     \\/     M anipulation  |
\*---------------------------------------------------------------------------*/
FoamFile
{
    format      ascii;
    class       volVectorField;
    location    "3.5";
    object      U;
}
// * * * * * * * * * * * * * * * * * * * * * * * * * * * * * * * * * * * * * //

dimensions      [0 1 -1 0 0 0 0];

internalField   nonuniform List<vector> 
400
(
(0.025 -1.04884e-11 0)
(0.025 -8.39027e-12 0)
(0.025 -3.52771e-12 0)
(0.025 -1.88086e-12 0)
(0.025 -1.03831e-12 0)
(0.025 -5.50765e-13 0)
(0.025 -2.97137e-13 0)
(0.025 -1.48791e-13 0)
(0.025 -6.711e-14 0)
(0.025 -2.86229e-14 0)
(0.025 -1.03178e-14 0)
(0.025 1.52966e-15 0)
(0.025 1.38564e-14 0)
(0.025 3.48329e-14 0)
(0.025 8.30517e-14 0)
(0.025 2.20269e-13 0)
(0.025 5.48902e-13 0)
(0.025 1.30689e-12 0)
(0.025 4.60315e-12 0)
(0.025 5.39645e-12 0)
(0.075 -3.61128e-11 0)
(0.075 -3.2106e-11 0)
(0.075 -1.67626e-11 0)
(0.075 -9.62293e-12 0)
(0.075 -5.55842e-12 0)
(0.075 -3.09086e-12 0)
(0.075 -1.69964e-12 0)
(0.075 -8.9907e-13 0)
(0.075 -4.45905e-13 0)
(0.075 -2.02366e-13 0)
(0.075 -7.20002e-14 0)
(0.075 6.83029e-15 0)
(0.075 7.79312e-14 0)
(0.075 1.93782e-13 0)
(0.075 4.53645e-13 0)
(0.075 1.1092e-12 0)
(0.075 2.60707e-12 0)
(0.075 5.79952e-12 0)
(0.075 1.57494e-11 0)
(0.075 1.72883e-11 0)
(0.125 -6.56759e-11 0)
(0.125 -6.37805e-11 0)
(0.125 -3.85235e-11 0)
(0.125 -2.33089e-11 0)
(0.125 -1.39036e-11 0)
(0.125 -7.99512e-12 0)
(0.125 -4.49615e-12 0)
(0.125 -2.43658e-12 0)
(0.125 -1.25026e-12 0)
(0.125 -5.88617e-13 0)
(0.125 -2.225e-13 0)
(0.125 -1.95945e-15 0)
(0.125 1.87834e-13 0)
(0.125 4.81697e-13 0)
(0.125 1.11582e-12 0)
(0.125 2.60621e-12 0)
(0.125 5.87135e-12 0)
(0.125 1.23884e-11 0)
(0.125 2.78707e-11 0)
(0.125 2.86645e-11 0)
(0.175 -9.03669e-11 0)
(0.175 -9.24219e-11 0)
(0.175 -6.09427e-11 0)
(0.175 -3.8387e-11 0)
(0.175 -2.35155e-11 0)
(0.175 -1.38273e-11 0)
(0.175 -7.89419e-12 0)
(0.175 -4.3426e-12 0)
(0.175 -2.26655e-12 0)
(0.175 -1.08661e-12 0)
(0.175 -4.26625e-13 0)
(0.175 -3.57992e-14 0)
(0.175 2.82507e-13 0)
(0.175 7.51115e-13 0)
(0.175 1.73729e-12 0)
(0.175 3.96958e-12 0)
(0.175 8.70485e-12 0)
(0.175 1.76698e-11 0)
(0.175 3.5684e-11 0)
(0.175 3.52065e-11 0)
(0.225 -1.0656e-10 0)
(0.225 -1.12293e-10 0)
(0.225 -7.8516e-11 0)
(0.225 -5.11453e-11 0)
(0.225 -3.20697e-11 0)
(0.225 -1.92175e-11 0)
(0.225 -1.11197e-11 0)
(0.225 -6.18381e-12 0)
(0.225 -3.26093e-12 0)
(0.225 -1.58323e-12 0)
(0.225 -6.44367e-13 0)
(0.225 -1.02803e-13 0)
(0.225 3.07086e-13 0)
(0.225 8.71796e-13 0)
(0.225 2.03714e-12 0)
(0.225 4.62366e-12 0)
(0.225 9.99516e-12 0)
(0.225 1.96984e-11 0)
(0.225 3.73412e-11 0)
(0.225 3.58591e-11 0)
(0.275 -1.13212e-10 0)
(0.275 -1.21407e-10 0)
(0.275 -8.85344e-11 0)
(0.275 -5.92713e-11 0)
(0.275 -3.79184e-11 0)
(0.275 -2.30857e-11 0)
(0.275 -1.35068e-11 0)
(0.275 -7.57004e-12 0)
(0.275 -4.01556e-12 0)
(0.275 -1.96424e-12 0)
(0.275 -8.24281e-13 0)
(0.275 -1.9432e-13 0)
(0.275 2.30798e-13 0)
(0.275 7.60157e-13 0)
(0.275 1.84529e-12 0)
(0.275 4.26503e-12 0)
(0.275 9.27394e-12 0)
(0.275 1.79943e-11 0)
(0.275 3.29425e-11 0)
(0.275 3.09287e-11 0)
(0.325 -1.10487e-10 0)
(0.325 -1.19625e-10 0)
(0.325 -8.99754e-11 0)
(0.325 -6.15677e-11 0)
(0.325 -4.00585e-11 0)
(0.325 -2.47118e-11 0)
(0.325 -1.4584e-11 0)
(0.325 -8.21205e-12 0)
(0.325 -4.36218e-12 0)
(0.325 -2.1369e-12 0)
(0.325 -9.19819e-13 0)
(0.325 -2.92971e-13 0)
(0.325 4.9766e-14 0)
(0.325 3.93173e-13 0)
(0.325 1.12156e-12 0)
(0.325 2.85422e-12 0)
(0.325 6.5815e-12 0)
(0.325 1.29039e-11 0)
(0.325 2.35159e-11 0)
(0.325 2.13782e-11 0)
(0.375 -9.91941e-11 0)
(0.375 -1.07756e-10 0)
(0.375 -8.29547e-11 0)
(0.375 -5.77457e-11 0)
(0.375 -3.81092e-11 0)
(0.375 -2.37645e-11 0)
(0.375 -1.41104e-11 0)
(0.375 -7.95188e-12 0)
(0.375 -4.20384e-12 0)
(0.375 -2.04413e-12 0)
(0.375 -8.97555e-13 0)
(0.375 -3.77098e-13 0)
(0.375 -2.15756e-13 0)
(0.375 -1.96792e-13 0)
(0.375 -6.39848e-14 0)
(0.375 5.55744e-13 0)
(0.375 2.28786e-12 0)
(0.375 5.21503e-12 0)
(0.375 1.04095e-11 0)
(0.375 8.40842e-12 0)
(0.425 -8.07628e-11 0)
(0.425 -8.74023e-11 0)
(0.425 -6.85057e-11 0)
(0.425 -4.83421e-11 0)
(0.425 -3.23052e-11 0)
(0.425 -2.03286e-11 0)
(0.425 -1.2108e-11 0)
(0.425 -6.79005e-12 0)
(0.425 -3.535e-12 0)
(0.425 -1.67836e-12 0)
(0.425 -7.46538e-13 0)
(0.425 -4.27582e-13 0)
(0.425 -5.28177e-13 0)
(0.425 -9.33383e-13 0)
(0.425 -1.55616e-12 0)
(0.425 -2.32126e-12 0)
(0.425 -3.01989e-12 0)
(0.425 -4.04413e-12 0)
(0.425 -4.83322e-12 0)
(0.425 -6.58532e-12 0)
(0.475 -5.70756e-11 0)
(0.475 -6.07495e-11 0)
(0.475 -4.83898e-11 0)
(0.475 -3.45765e-11 0)
(0.475 -2.34249e-11 0)
(0.475 -1.48739e-11 0)
(0.475 -8.85223e-12 0)
(0.475 -4.88449e-12 0)
(0.475 -2.44384e-12 0)
(0.475 -1.08474e-12 0)
(0.475 -4.82204e-13 0)
(0.475 -4.33065e-13 0)
(0.475 -8.41455e-13 0)
(0.475 -1.71338e-12 0)
(0.475 -3.14897e-12 0)
(0.475 -5.38685e-12 0)
(0.475 -8.64976e-12 0)
(0.475 -1.37472e-11 0)
(0.475 -2.06322e-11 0)
(0.475 -2.21545e-11 0)
(0.525 -3.03481e-11 0)
(0.525 -3.04056e-11 0)
(0.525 -2.48892e-11 0)
(0.525 -1.81804e-11 0)
(0.525 -1.26663e-11 0)
(0.525 -8.17684e-12 0)
(0.525 -4.8239e-12 0)
(0.525 -2.52366e-12 0)
(0.525 -1.09743e-12 0)
(0.525 -3.54054e-13 0)
(0.525 -1.44658e-13 0)
(0.525 -3.92873e-13 0)
(0.525 -1.11024e-12 0)
(0.525 -2.42581e-12 0)
(0.525 -4.62127e-12 0)
(0.525 -8.23294e-12 0)
(0.525 -1.38986e-11 0)
(0.525 -2.27923e-11 0)
(0.525 -3.54691e-11 0)
(0.525 -3.68789e-11 0)
(0.575 -2.98388e-12 0)
(0.575 7.61446e-13 0)
(0.575 -6.15506e-13 0)
(0.575 -1.202e-12 0)
(0.575 -1.48901e-12 0)
(0.575 -1.20457e-12 0)
(0.575 -6.32518e-13 0)
(0.575 -7.71357e-14 0)
(0.575 2.87784e-13 0)
(0.575 3.93547e-13 0)
(0.575 2.08766e-13 0)
(0.575 -3.16995e-13 0)
(0.575 -1.29731e-12 0)
(0.575 -2.9695e-12 0)
(0.575 -5.76975e-12 0)
(0.575 -1.04867e-11 0)
(0.575 -1.81306e-11 0)
(0.575 -3.01907e-11 0)
(0.575 -4.79736e-11 0)
(0.575 -4.9452e-11 0)
(0.625 2.25407e-11 0)
(0.625 2.97662e-11 0)
(0.625 2.1693e-11 0)
(0.625 1.42061e-11 0)
(0.625 8.57459e-12 0)
(0.625 5.02784e-12 0)
(0.625 3.08398e-12 0)
(0.625 2.06913e-12 0)
(0.625 1.48613e-12 0)
(0.625 1.03193e-12 0)
(0.625 5.15332e-13 0)
(0.625 -2.23101e-13 0)
(0.625 -1.37853e-12 0)
(0.625 -3.26751e-12 0)
(0.625 -6.43579e-12 0)
(0.625 -1.18546e-11 0)
(0.625 -2.08372e-11 0)
(0.625 -3.51375e-11 0)
(0.625 -5.69829e-11 0)
(0.625 -5.87411e-11 0)
(0.675 4.38333e-11 0)
(0.675 5.36763e-11 0)
(0.675 3.93936e-11 0)
(0.675 2.60345e-11 0)
(0.675 1.61304e-11 0)
(0.675 9.61969e-12 0)
(0.675 5.77055e-12 0)
(0.675 3.5853e-12 0)
(0.675 2.30726e-12 0)
(0.675 1.45516e-12 0)
(0.675 7.20647e-13 0)
(0.675 -1.31093e-13 0)
(0.675 -1.34512e-12 0)
(0.675 -3.27785e-12 0)
(0.675 -6.52665e-12 0)
(0.675 -1.21565e-11 0)
(0.675 -2.16871e-11 0)
(0.675 -3.70691e-11 0)
(0.675 -6.16e-11 0)
(0.675 -6.38493e-11 0)
(0.725 5.87015e-11 0)
(0.725 6.9792e-11 0)
(0.725 5.02195e-11 0)
(0.725 3.26895e-11 0)
(0.725 2.01536e-11 0)
(0.725 1.19475e-11 0)
(0.725 7.06422e-12 0)
(0.725 4.26556e-12 0)
(0.725 2.63719e-12 0)
(0.725 1.60142e-12 0)
(0.725 7.92032e-13 0)
(0.725 -5.73783e-14 0)
(0.725 -1.20376e-12 0)
(0.725 -2.9995e-12 0)
(0.725 -6.02914e-12 0)
(0.725 -1.13503e-11 0)
(0.725 -2.0565e-11 0)
(0.725 -3.57176e-11 0)
(0.725 -6.12454e-11 0)
(0.725 -6.41652e-11 0)
(0.775 6.53787e-11 0)
(0.775 7.59078e-11 0)
(0.775 5.25836e-11 0)
(0.775 3.33e-11 0)
(0.775 2.02044e-11 0)
(0.775 1.18096e-11 0)
(0.775 6.87935e-12 0)
(0.775 4.07829e-12 0)
(0.775 2.46667e-12 0)
(0.775 1.46883e-12 0)
(0.775 7.27008e-13 0)
(0.775 -1.0517e-14 0)
(0.775 -9.7534e-13 0)
(0.775 -2.47376e-12 0)
(0.775 -5.0155e-12 0)
(0.775 -9.54609e-12 0)
(0.775 -1.76018e-11 0)
(0.775 -3.11577e-11 0)
(0.775 -5.57225e-11 0)
(0.775 -5.94258e-11 0)
(0.825 6.25232e-11 0)
(0.825 7.05202e-11 0)
(0.825 4.60016e-11 0)
(0.825 2.8003e-11 0)
(0.825 1.66078e-11 0)
(0.825 9.51184e-12 0)
(0.825 5.44874e-12 0)
(0.825 3.1825e-12 0)
(0.825 1.89788e-12 0)
(0.825 1.1183e-12 0)
(0.825 5.55143e-13 0)
(0.825 1.07316e-14 0)
(0.825 -6.9198e-13 0)
(0.825 -1.78106e-12 0)
(0.825 -3.64037e-12 0)
(0.825 -7.00917e-12 0)
(0.825 -1.3193e-11 0)
(0.825 -2.38622e-11 0)
(0.825 -4.52577e-11 0)
(0.825 -4.97177e-11 0)
(0.875 4.99339e-11 0)
(0.875 5.38666e-11 0)
(0.875 3.18795e-11 0)
(0.875 1.83945e-11 0)
(0.875 1.06122e-11 0)
(0.875 5.91734e-12 0)
(0.875 3.32483e-12 0)
(0.875 1.91743e-12 0)
(0.875 1.133e-12 0)
(0.875 6.64763e-13 0)
(0.875 3.32121e-13 0)
(0.875 1.29604e-14 0)
(0.875 -4.01613e-13 0)
(0.875 -1.04648e-12 0)
(0.875 -2.1502e-12 0)
(0.875 -4.18363e-12 0)
(0.875 -8.07592e-12 0)
(0.875 -1.49163e-11 0)
(0.875 -3.09067e-11 0)
(0.875 -3.57266e-11 0)
(0.925 2.96453e-11 0)
(0.925 2.98507e-11 0)
(0.925 1.49881e-11 0)
(0.925 7.95592e-12 0)
(0.925 4.44279e-12 0)
(0.925 2.37659e-12 0)
(0.925 1.29907e-12 0)
(0.925 7.40326e-13 0)
(0.925 4.36478e-13 0)
(0.925 2.58666e-13 0)
(0.925 1.3332e-13 0)
(0.925 1.03707e-14 0)
(0.925 -1.55951e-13 0)
(0.925 -4.17654e-13 0)
(0.925 -8.66946e-13 0)
(0.925 -1.71111e-12 0)
(0.925 -3.42448e-12 0)
(0.925 -6.42161e-12 0)
(0.925 -1.54398e-11 0)
(0.925 -1.94803e-11 0)
(0.975 9.15806e-12 0)
(0.975 8.56129e-12 0)
(0.975 3.41741e-12 0)
(0.975 1.58939e-12 0)
(0.975 8.53602e-13 0)
(0.975 4.25498e-13 0)
(0.975 2.23051e-13 0)
(0.975 1.25762e-13 0)
(0.975 7.42025e-14 0)
(0.975 4.43413e-14 0)
(0.975 2.34354e-14 0)
(0.975 1.58703e-15 0)
(0.975 -3.17879e-14 0)
(0.975 -8.54903e-14 0)
(0.975 -1.73226e-13 0)
(0.975 -3.40438e-13 0)
(0.975 -7.16584e-13 0)
(0.975 -1.34517e-12 0)
(0.975 -4.02055e-12 0)
(0.975 -5.62026e-12 0)
)
;

boundaryField
{
    top
    {
        type            fixedValue;
        value           uniform (1 0 0);
    }
    bottom
    {
        type            fixedValue;
        value           uniform (0 0 0);
    }
    inlet
    {
        type            zeroGradient;
    }
    outlet
    {
        type            zeroGradient;
    }
    frontAndBack
    {
        type            empty;
    }
}


// ************************************************************************* //
