/*--------------------------------*- C++ -*----------------------------------*\
  =========                 |
  \\      /  F ield         | OpenFOAM: The Open Source CFD Toolbox
   \\    /   O peration     | Website:  https://openfoam.org
    \\  /    A nd           | Version:  9
     \\/     M anipulation  |
\*---------------------------------------------------------------------------*/
FoamFile
{
    format      ascii;
    class       volScalarField;
    location    "0.4";
    object      p;
}
// * * * * * * * * * * * * * * * * * * * * * * * * * * * * * * * * * * * * * //

dimensions      [0 2 -2 0 0 0 0];

internalField   nonuniform List<scalar> 
400
(
1.27083e-06
2.34746e-06
2.38459e-06
2.19301e-06
1.92202e-06
1.64112e-06
1.38993e-06
1.16783e-06
9.58786e-07
7.61539e-07
5.67503e-07
3.75707e-07
1.89972e-07
-1.59604e-09
-2.1691e-07
-4.612e-07
-7.17355e-07
-9.38314e-07
-1.08738e-06
-6.86293e-07
1.16781e-06
2.15908e-06
2.17966e-06
2.04104e-06
1.82385e-06
1.58629e-06
1.36224e-06
1.15676e-06
9.56801e-07
7.62651e-07
5.72126e-07
3.84519e-07
2.01708e-07
1.36217e-08
-1.92808e-07
-4.19518e-07
-6.49635e-07
-8.38452e-07
-9.92237e-07
-6.31268e-07
1.12896e-06
2.09232e-06
2.05399e-06
1.93543e-06
1.74983e-06
1.54205e-06
1.33871e-06
1.14656e-06
9.5453e-07
7.63826e-07
5.77242e-07
3.93556e-07
2.12246e-07
2.58981e-08
-1.7316e-07
-3.85305e-07
-5.97711e-07
-7.71779e-07
-9.65973e-07
-6.21308e-07
1.12276e-06
2.11346e-06
1.98896e-06
1.86645e-06
1.69524e-06
1.50659e-06
1.3183e-06
1.1359e-06
9.51635e-07
7.65796e-07
5.82755e-07
4.01156e-07
2.19962e-07
3.50185e-08
-1.57195e-07
-3.57616e-07
-5.59936e-07
-7.34434e-07
-9.88264e-07
-6.29624e-07
1.11984e-06
2.16895e-06
1.95685e-06
1.82015e-06
1.65359e-06
1.47629e-06
1.30022e-06
1.12568e-06
9.48943e-07
7.6859e-07
5.87437e-07
4.05567e-07
2.2415e-07
4.18339e-08
-1.43205e-07
-3.33901e-07
-5.30544e-07
-7.12262e-07
-1.02717e-06
-6.36293e-07
1.1168e-06
2.23636e-06
1.94301e-06
1.78781e-06
1.62067e-06
1.44915e-06
1.28372e-06
1.11748e-06
9.4696e-07
7.70191e-07
5.89396e-07
4.06735e-07
2.25845e-07
4.72461e-08
-1.30598e-07
-3.12983e-07
-5.06095e-07
-6.96739e-07
-1.06768e-06
-6.3826e-07
1.11698e-06
2.30702e-06
1.94272e-06
1.76645e-06
1.59611e-06
1.42742e-06
1.27045e-06
1.11165e-06
9.45314e-07
7.6983e-07
5.88446e-07
4.05377e-07
2.25946e-07
5.15911e-08
-1.19623e-07
-2.95096e-07
-4.85912e-07
-6.84884e-07
-1.10258e-06
-6.36318e-07
1.12157e-06
2.37146e-06
1.95025e-06
1.75392e-06
1.57981e-06
1.41283e-06
1.26176e-06
1.10817e-06
9.43778e-07
7.67907e-07
5.85647e-07
4.02868e-07
2.25668e-07
5.56386e-08
-1.09863e-07
-2.7979e-07
-4.68901e-07
-6.74241e-07
-1.12689e-06
-6.31433e-07
1.13063e-06
2.42175e-06
1.96086e-06
1.74927e-06
1.57224e-06
1.40631e-06
1.2584e-06
1.10716e-06
9.42674e-07
7.65463e-07
5.82519e-07
4.00752e-07
2.2625e-07
6.02335e-08
-1.0074e-07
-2.66498e-07
-4.54098e-07
-6.63045e-07
-1.13746e-06
-6.24485e-07
1.14413e-06
2.45322e-06
1.97194e-06
1.75246e-06
1.574e-06
1.4082e-06
1.26066e-06
1.10891e-06
9.42666e-07
7.63719e-07
5.80524e-07
4.00311e-07
2.28555e-07
6.5828e-08
-9.20266e-08
-2.54994e-07
-4.41035e-07
-6.50423e-07
-1.1328e-06
-6.16217e-07
1.1619e-06
2.46412e-06
1.98266e-06
1.76379e-06
1.58547e-06
1.41847e-06
1.26849e-06
1.11368e-06
9.44463e-07
7.63765e-07
5.80788e-07
4.02355e-07
2.32924e-07
7.23749e-08
-8.39304e-08
-2.45422e-07
-4.29677e-07
-6.36227e-07
-1.11281e-06
-6.07093e-07
1.18319e-06
2.4548e-06
1.99345e-06
1.78364e-06
1.60682e-06
1.43692e-06
1.28177e-06
1.12172e-06
9.48677e-07
7.66398e-07
5.83991e-07
4.07203e-07
2.39247e-07
7.94599e-08
-7.69271e-08
-2.38104e-07
-4.20218e-07
-6.20839e-07
-1.0785e-06
-5.97287e-07
1.20658e-06
2.42732e-06
2.00584e-06
1.81282e-06
1.63837e-06
1.46372e-06
1.30078e-06
1.13355e-06
9.55964e-07
7.72192e-07
5.9042e-07
4.14755e-07
2.4709e-07
8.64891e-08
-7.15546e-08
-2.33372e-07
-4.12985e-07
-6.05177e-07
-1.03209e-06
-5.86834e-07
1.23012e-06
2.3858e-06
2.0229e-06
1.85306e-06
1.68125e-06
1.49983e-06
1.32658e-06
1.15029e-06
9.67299e-07
7.81734e-07
6.00151e-07
4.24627e-07
2.55829e-07
9.287e-08
-6.82451e-08
-2.31517e-07
-4.08497e-07
-5.90859e-07
-9.77254e-07
-5.75879e-07
1.25169e-06
2.33698e-06
2.04952e-06
1.90725e-06
1.73734e-06
1.54686e-06
1.36077e-06
1.17351e-06
9.83921e-07
7.95648e-07
6.13121e-07
4.36239e-07
2.6475e-07
9.81546e-08
-6.71933e-08
-2.32837e-07
-4.07634e-07
-5.80309e-07
-9.19242e-07
-5.64819e-07
1.26918e-06
2.29028e-06
2.09184e-06
1.97847e-06
1.80819e-06
1.60574e-06
1.40423e-06
1.20415e-06
1.00652e-06
8.14051e-07
6.2883e-07
4.48727e-07
2.73063e-07
1.02068e-07
-6.83035e-08
-2.37711e-07
-4.11751e-07
-5.76447e-07
-8.6423e-07
-5.53974e-07
1.28099e-06
2.25834e-06
2.15668e-06
2.06872e-06
1.89358e-06
1.67536e-06
1.45583e-06
1.24138e-06
1.03429e-06
8.35787e-07
6.45888e-07
4.60924e-07
2.80032e-07
1.04384e-07
-7.13701e-08
-2.46569e-07
-4.2255e-07
-5.82189e-07
-8.18498e-07
-5.43072e-07
1.29488e-06
2.27009e-06
2.26301e-06
2.1882e-06
1.99856e-06
1.7577e-06
1.51601e-06
1.28495e-06
1.0663e-06
8.5915e-07
6.62527e-07
4.72122e-07
2.85607e-07
1.04372e-07
-7.74721e-08
-2.60901e-07
-4.43496e-07
-6.04253e-07
-7.94494e-07
-5.3539e-07
1.34131e-06
2.37807e-06
2.44477e-06
2.3566e-06
2.13452e-06
1.85888e-06
1.58749e-06
1.33523e-06
1.10165e-06
8.83014e-07
6.77848e-07
4.81726e-07
2.89656e-07
1.01713e-07
-8.78694e-08
-2.82656e-07
-4.78953e-07
-6.53619e-07
-8.16236e-07
-5.46328e-07
1.46375e-06
2.61002e-06
2.70948e-06
2.57792e-06
2.30288e-06
1.97892e-06
1.66949e-06
1.39069e-06
1.13882e-06
9.06759e-07
6.91938e-07
4.89611e-07
2.91909e-07
9.65717e-08
-1.02596e-07
-3.12641e-07
-5.30977e-07
-7.34966e-07
-9.01941e-07
-5.99224e-07
)
;

boundaryField
{
    top
    {
        type            zeroGradient;
    }
    bottom
    {
        type            zeroGradient;
    }
    inlet
    {
        type            fixedValue;
        value           uniform 0;
    }
    outlet
    {
        type            fixedValue;
        value           uniform 0;
    }
    frontAndBack
    {
        type            empty;
    }
}


// ************************************************************************* //
