/*--------------------------------*- C++ -*----------------------------------*\
  =========                 |
  \\      /  F ield         | OpenFOAM: The Open Source CFD Toolbox
   \\    /   O peration     | Website:  https://openfoam.org
    \\  /    A nd           | Version:  9
     \\/     M anipulation  |
\*---------------------------------------------------------------------------*/
FoamFile
{
    format      ascii;
    class       surfaceScalarField;
    location    "0.4";
    object      phi;
}
// * * * * * * * * * * * * * * * * * * * * * * * * * * * * * * * * * * * * * //

dimensions      [0 3 -1 0 0 0 0];

internalField   nonuniform List<scalar> 
760
(
1.19601e-06
-7.04238e-12
1.19602e-06
-7.72706e-12
1.19603e-06
-5.2705e-12
1.19603e-06
-3.31996e-12
1.19603e-06
-1.90077e-12
1.19603e-06
-9.26074e-13
1.19603e-06
-3.84148e-13
1.19603e-06
-1.02484e-13
1.19603e-06
4.80745e-14
1.19603e-06
7.57839e-14
1.19603e-06
1.00156e-13
1.19603e-06
1.34909e-13
1.19603e-06
1.56412e-13
1.19603e-06
2.14407e-13
1.19603e-06
3.90913e-13
1.19603e-06
7.77899e-13
1.19603e-06
1.4744e-12
1.19603e-06
2.55923e-12
1.19602e-06
4.4859e-12
4.78302e-12
3.58939e-06
-1.69171e-11
3.5894e-06
-2.04873e-11
3.58941e-06
-1.55188e-11
3.58942e-06
-1.02358e-11
3.58942e-06
-6.03172e-12
3.58942e-06
-3.04658e-12
3.58942e-06
-1.27476e-12
3.58942e-06
-3.33526e-13
3.58942e-06
1.61581e-13
3.58942e-06
3.23384e-13
3.58942e-06
3.9345e-13
3.58942e-06
4.61429e-13
3.58942e-06
5.68778e-13
3.58942e-06
8.38907e-13
3.58942e-06
1.45506e-12
3.58942e-06
2.67392e-12
3.58942e-06
4.78287e-12
3.58941e-06
7.90841e-12
3.5894e-06
1.21951e-11
1.16268e-11
5.98673e-06
-2.48283e-11
5.98674e-06
-3.14364e-11
5.98675e-06
-2.49311e-11
5.98675e-06
-1.68142e-11
5.98676e-06
-9.98201e-12
5.98676e-06
-5.02631e-12
5.98676e-06
-1.98159e-12
5.98676e-06
-3.47122e-13
5.98676e-06
4.79945e-13
5.98676e-06
7.57622e-13
5.98676e-06
8.4815e-13
5.98676e-06
9.26404e-13
5.98676e-06
1.11298e-12
5.98676e-06
1.61085e-12
5.98676e-06
2.71125e-12
5.98675e-06
4.83297e-12
5.98675e-06
8.41909e-12
5.98674e-06
1.35385e-11
5.98674e-06
1.95052e-11
1.75495e-11
8.39055e-06
-2.88052e-11
8.39056e-06
-3.72913e-11
8.39057e-06
-3.04914e-11
8.39057e-06
-2.07948e-11
8.39057e-06
-1.2264e-11
8.39057e-06
-5.96309e-12
8.39057e-06
-2.02151e-12
8.39057e-06
7.34654e-14
8.39057e-06
1.08647e-12
8.39057e-06
1.39852e-12
8.39057e-06
1.44524e-12
8.39057e-06
1.47889e-12
8.39057e-06
1.69158e-12
8.39057e-06
2.35058e-12
8.39057e-06
3.82764e-12
8.39057e-06
6.64932e-12
8.39056e-06
1.13345e-11
8.39056e-06
1.78064e-11
8.39055e-06
2.45309e-11
2.14375e-11
1.08032e-05
-2.85464e-11
1.08032e-05
-3.74822e-11
1.08032e-05
-3.11007e-11
1.08032e-05
-2.1129e-11
1.08032e-05
-1.2084e-11
1.08032e-05
-5.34224e-12
1.08032e-05
-1.11213e-12
1.08032e-05
1.07431e-12
1.08032e-05
2.03601e-12
1.08032e-05
2.23941e-12
1.08032e-05
2.15288e-12
1.08032e-05
2.07268e-12
1.08032e-05
2.23478e-12
1.08032e-05
2.94077e-12
1.08032e-05
4.59547e-12
1.08032e-05
7.75848e-12
1.08032e-05
1.29436e-11
1.08032e-05
1.99057e-11
1.08032e-05
2.65828e-11
2.28679e-11
1.32269e-05
-2.42368e-11
1.32269e-05
-3.22441e-11
1.32269e-05
-2.66138e-11
1.32269e-05
-1.74891e-11
1.32269e-05
-9.12137e-12
1.32269e-05
-2.92314e-12
1.32269e-05
8.81329e-13
1.32269e-05
2.70726e-12
1.32269e-05
3.33445e-12
1.32269e-05
3.25629e-12
1.32269e-05
2.93241e-12
1.32269e-05
2.66161e-12
1.32269e-05
2.68561e-12
1.32269e-05
3.30198e-12
1.32269e-05
4.895e-12
1.32269e-05
7.98282e-12
1.32269e-05
1.30114e-11
1.32269e-05
1.96026e-11
1.32269e-05
2.55414e-11
2.17652e-11
1.56635e-05
-1.64606e-11
1.56635e-05
-2.23552e-11
1.56635e-05
-1.75495e-11
1.56635e-05
-1.01306e-11
1.56634e-05
-3.4914e-12
1.56634e-05
1.23955e-12
1.56634e-05
3.91732e-12
1.56634e-05
4.91995e-12
1.56634e-05
4.92808e-12
1.56634e-05
4.39767e-12
1.56634e-05
3.73528e-12
1.56634e-05
3.20127e-12
1.56634e-05
3.00412e-12
1.56634e-05
3.39841e-12
1.56634e-05
4.69803e-12
1.56634e-05
7.31722e-12
1.56634e-05
1.15932e-11
1.56634e-05
1.70787e-11
1.56634e-05
2.1746e-11
1.83955e-11
1.81145e-05
-6.07563e-12
1.81145e-05
-8.9511e-12
1.81145e-05
-4.90379e-12
1.81145e-05
2.20815e-13
1.81144e-05
4.31134e-12
1.81144e-05
6.81438e-12
1.81144e-05
7.77452e-12
1.81144e-05
7.55434e-12
1.81144e-05
6.70243e-12
1.81144e-05
5.58102e-12
1.81144e-05
4.50145e-12
1.81144e-05
3.65022e-12
1.81144e-05
3.16883e-12
1.81144e-05
3.23587e-12
1.81144e-05
4.05551e-12
1.81144e-05
5.89345e-12
1.81144e-05
8.9548e-12
1.81144e-05
1.27896e-11
1.81144e-05
1.5809e-11
1.32391e-11
2.05811e-05
5.88354e-12
2.05811e-05
6.60197e-12
2.05811e-05
9.99592e-12
2.05811e-05
1.24817e-11
2.05811e-05
1.34853e-11
2.05811e-05
1.32385e-11
2.05811e-05
1.20744e-11
2.05811e-05
1.03581e-11
2.05811e-05
8.48987e-12
2.05811e-05
6.69682e-12
2.05811e-05
5.16188e-12
2.05811e-05
3.97122e-12
2.05811e-05
3.17501e-12
2.05811e-05
2.85349e-12
2.05811e-05
3.07633e-12
2.05811e-05
3.93578e-12
2.05811e-05
5.49326e-12
2.05811e-05
7.34585e-12
2.05811e-05
8.48609e-12
6.90043e-12
2.30643e-05
1.82831e-11
2.30642e-05
2.28033e-11
2.30642e-05
2.56119e-11
2.30642e-05
2.53259e-11
2.30642e-05
2.30105e-11
2.30642e-05
1.97827e-11
2.30642e-05
1.63245e-11
2.30642e-05
1.30106e-11
2.30642e-05
1.00865e-11
2.30642e-05
7.6195e-12
2.30642e-05
5.64459e-12
2.30642e-05
4.13314e-12
2.30642e-05
3.03166e-12
2.30642e-05
2.31293e-12
2.30642e-05
1.90353e-12
2.30642e-05
1.71651e-12
2.30642e-05
1.666e-12
2.30642e-05
1.41935e-12
2.30642e-05
5.85217e-13
4.22823e-14
2.55643e-05
2.9961e-11
2.55643e-05
3.81024e-11
2.55642e-05
4.03076e-11
2.55642e-05
3.73043e-11
2.55642e-05
3.17531e-11
2.55642e-05
2.56328e-11
2.55642e-05
1.99773e-11
2.55642e-05
1.51623e-11
2.55642e-05
1.12777e-11
2.55642e-05
8.22354e-12
2.55642e-05
5.88358e-12
2.55642e-05
4.11396e-12
2.55642e-05
2.75851e-12
2.55642e-05
1.6874e-12
2.55642e-05
6.91591e-13
2.55642e-05
-4.83412e-13
2.55642e-05
-2.06737e-12
2.55642e-05
-4.32764e-12
2.55642e-05
-7.09875e-12
-6.66703e-12
2.80812e-05
3.97962e-11
2.80811e-05
5.09828e-11
2.80811e-05
5.24619e-11
2.80811e-05
4.69745e-11
2.80811e-05
3.85849e-11
2.80811e-05
2.99872e-11
2.80811e-05
2.25031e-11
2.80811e-05
1.64844e-11
2.80811e-05
1.18702e-11
2.80811e-05
8.40314e-12
2.80811e-05
5.82966e-12
2.80811e-05
3.90471e-12
2.80811e-05
2.38358e-12
2.80811e-05
1.05181e-12
2.80811e-05
-4.13079e-13
2.80811e-05
-2.40662e-12
2.80811e-05
-5.29071e-12
2.80811e-05
-9.29531e-12
2.80811e-05
-1.38332e-11
-1.25977e-11
3.06145e-05
4.67795e-11
3.06145e-05
6.00533e-11
3.06145e-05
6.05965e-11
3.06145e-05
5.30457e-11
3.06145e-05
4.25186e-11
3.06145e-05
3.21649e-11
3.06145e-05
2.34692e-11
3.06145e-05
1.67231e-11
3.06145e-05
1.17268e-11
3.06145e-05
8.09301e-12
3.06145e-05
5.46153e-12
3.06145e-05
3.51359e-12
3.06145e-05
1.94141e-12
3.06145e-05
4.7473e-13
3.06145e-05
-1.2878e-12
3.06145e-05
-3.84446e-12
3.06145e-05
-7.66632e-12
3.06145e-05
-1.29865e-11
3.06145e-05
-1.89863e-11
-1.71961e-11
3.31635e-05
5.00875e-11
3.31635e-05
6.4154e-11
3.31635e-05
6.35284e-11
3.31635e-05
5.45436e-11
3.31635e-05
4.28553e-11
3.31635e-05
3.17209e-11
3.31635e-05
2.26223e-11
3.31635e-05
1.5753e-11
3.31635e-05
1.07992e-11
3.31635e-05
7.28701e-12
3.31635e-05
4.79512e-12
3.31635e-05
2.9691e-12
3.31635e-05
1.47141e-12
3.31635e-05
1.18319e-14
3.31635e-05
-1.84565e-12
3.31635e-05
-4.65564e-12
3.31635e-05
-8.96177e-12
3.31635e-05
-1.50387e-11
3.31635e-05
-2.20593e-11
-2.00173e-11
3.57269e-05
4.91666e-11
3.57269e-05
6.24928e-11
3.57269e-05
6.05568e-11
3.57269e-05
5.09964e-11
3.57269e-05
3.93372e-11
3.5727e-05
2.85556e-11
3.5727e-05
1.996e-11
3.5727e-05
1.36215e-11
3.5727e-05
9.15256e-12
3.5727e-05
6.05051e-12
3.5727e-05
3.88858e-12
3.5727e-05
2.32075e-12
3.5727e-05
1.01583e-12
3.5727e-05
-2.99202e-13
3.5727e-05
-2.04438e-12
3.5727e-05
-4.77952e-12
3.5727e-05
-9.07103e-12
3.5727e-05
-1.52539e-11
3.5727e-05
-2.27194e-11
-2.07567e-11
3.83032e-05
4.38393e-11
3.83033e-05
5.4834e-11
3.83033e-05
5.16959e-11
3.83033e-05
4.26337e-11
3.83033e-05
3.22887e-11
3.83033e-05
2.3004e-11
3.83033e-05
1.57809e-11
3.83033e-05
1.05726e-11
3.83033e-05
6.97502e-12
3.83033e-05
4.52266e-12
3.83033e-05
2.84093e-12
3.83033e-05
1.63594e-12
3.83033e-05
6.16273e-13
3.83033e-05
-4.42348e-13
3.83033e-05
-1.89259e-12
3.83033e-05
-4.24547e-12
3.83033e-05
-8.03185e-12
3.83033e-05
-1.36307e-11
3.83033e-05
-2.08406e-11
-1.92871e-11
4.08906e-05
3.44598e-11
4.08906e-05
4.17731e-11
4.08906e-05
3.79517e-11
4.08906e-05
3.05752e-11
4.08906e-05
2.27181e-11
4.08906e-05
1.58777e-11
4.08906e-05
1.06934e-11
4.08906e-05
7.04044e-12
4.08906e-05
4.56632e-12
4.08906e-05
2.90491e-12
4.08906e-05
1.78267e-12
4.08906e-05
9.92016e-13
4.08906e-05
3.07929e-13
4.08906e-05
-4.25197e-13
4.08906e-05
-1.45204e-12
4.08906e-05
-3.17963e-12
4.08906e-05
-6.04248e-12
4.08906e-05
-1.04072e-11
4.08906e-05
-1.65673e-11
-1.57097e-11
4.34867e-05
2.21091e-11
4.34867e-05
2.51464e-11
4.34868e-05
2.16215e-11
4.34868e-05
1.69561e-11
4.34868e-05
1.23341e-11
4.34868e-05
8.4347e-12
4.34868e-05
5.56995e-12
4.34868e-05
3.60476e-12
4.34868e-05
2.30064e-12
4.34868e-05
1.43453e-12
4.34868e-05
8.58795e-13
4.34868e-05
4.63113e-13
4.34868e-05
1.09256e-13
4.34868e-05
-2.79089e-13
4.34868e-05
-8.33161e-13
4.34868e-05
-1.81013e-12
4.34868e-05
-3.48444e-12
4.34868e-05
-6.12338e-12
4.34868e-05
-1.04112e-11
-1.04057e-11
4.60894e-05
8.81789e-12
4.60894e-05
8.87946e-12
4.60894e-05
6.90211e-12
4.60894e-05
5.19225e-12
4.60894e-05
3.65712e-12
4.60894e-05
2.41192e-12
4.60894e-05
1.54559e-12
4.60894e-05
9.79938e-13
4.60894e-05
6.14331e-13
4.60895e-05
3.6951e-13
4.60895e-05
2.12996e-13
4.60895e-05
1.16939e-13
4.60895e-05
2.10468e-14
4.60895e-05
-8.90064e-14
4.60895e-05
-2.42012e-13
4.60894e-05
-5.35817e-13
4.60894e-05
-1.07166e-12
4.60894e-05
-1.96179e-12
4.60894e-05
-3.82202e-12
-4.28333e-12
4.8696e-05
4.8696e-05
4.8696e-05
4.8696e-05
4.8696e-05
4.8696e-05
4.8696e-05
4.8696e-05
4.8696e-05
4.8696e-05
4.8696e-05
4.8696e-05
4.8696e-05
4.8696e-05
4.8696e-05
4.8696e-05
4.8696e-05
4.8696e-05
4.8696e-05
)
;

boundaryField
{
    top
    {
        type            calculated;
        value           uniform 0;
    }
    bottom
    {
        type            calculated;
        value           uniform 0;
    }
    inlet
    {
        type            calculated;
        value           nonuniform List<scalar> 
20
(
-1.19601e-06
-3.58938e-06
-5.98672e-06
-8.39055e-06
-1.08032e-05
-1.32269e-05
-1.56635e-05
-1.81145e-05
-2.05812e-05
-2.30643e-05
-2.55643e-05
-2.80812e-05
-3.06145e-05
-3.31635e-05
-3.57269e-05
-3.83032e-05
-4.08906e-05
-4.34867e-05
-4.60894e-05
-4.8696e-05
)
;
    }
    outlet
    {
        type            calculated;
        value           nonuniform List<scalar> 
20
(
1.19602e-06
3.5894e-06
5.98673e-06
8.39055e-06
1.08032e-05
1.32269e-05
1.56634e-05
1.81144e-05
2.05811e-05
2.30642e-05
2.55642e-05
2.80811e-05
3.06145e-05
3.31635e-05
3.5727e-05
3.83033e-05
4.08906e-05
4.34868e-05
4.60894e-05
4.8696e-05
)
;
    }
    frontAndBack
    {
        type            empty;
        value           nonuniform List<scalar> 0();
    }
}


// ************************************************************************* //
