/*--------------------------------*- C++ -*----------------------------------*\
  =========                 |
  \\      /  F ield         | OpenFOAM: The Open Source CFD Toolbox
   \\    /   O peration     | Website:  https://openfoam.org
    \\  /    A nd           | Version:  9
     \\/     M anipulation  |
\*---------------------------------------------------------------------------*/
FoamFile
{
    format      ascii;
    class       volVectorField;
    location    "0.4";
    object      U;
}
// * * * * * * * * * * * * * * * * * * * * * * * * * * * * * * * * * * * * * //

dimensions      [0 1 -1 0 0 0 0];

internalField   nonuniform List<vector> 
400
(
(0.0239202 -3.61593e-08 0)
(0.0239203 -4.08242e-08 0)
(0.0239205 -2.72633e-08 0)
(0.0239205 -1.70488e-08 0)
(0.0239206 -9.76337e-09 0)
(0.0239206 -4.7551e-09 0)
(0.0239206 -2.21508e-09 0)
(0.0239206 -5.93411e-10 0)
(0.0239206 1.3924e-10 0)
(0.0239206 -5.05388e-11 0)
(0.0239206 2.0862e-10 0)
(0.0239206 7.25351e-10 0)
(0.0239206 8.89988e-10 0)
(0.0239206 9.8548e-10 0)
(0.0239206 1.69342e-09 0)
(0.0239206 3.54147e-09 0)
(0.0239206 6.8917e-09 0)
(0.0239206 1.21476e-08 0)
(0.0239205 2.21383e-08 0)
(0.0239204 2.36195e-08 0)
(0.0717876 -1.19607e-07 0)
(0.0717878 -1.38823e-07 0)
(0.0717881 -1.0021e-07 0)
(0.0717883 -6.44867e-08 0)
(0.0717884 -3.74628e-08 0)
(0.0717884 -1.86219e-08 0)
(0.0717885 -7.79636e-09 0)
(0.0717885 -2.30137e-09 0)
(0.0717885 7.04201e-10 0)
(0.0717885 1.63787e-09 0)
(0.0717885 2.07734e-09 0)
(0.0717884 2.57475e-09 0)
(0.0717884 3.17007e-09 0)
(0.0717884 4.6376e-09 0)
(0.0717884 8.23533e-09 0)
(0.0717884 1.56666e-08 0)
(0.0717883 2.88946e-08 0)
(0.0717883 4.92852e-08 0)
(0.0717881 8.09943e-08 0)
(0.071788 8.11302e-08 0)
(0.119734 -2.15203e-07 0)
(0.119735 -2.67521e-07 0)
(0.119735 -2.08287e-07 0)
(0.119735 -1.39248e-07 0)
(0.119735 -8.26923e-08 0)
(0.119735 -4.21264e-08 0)
(0.119735 -1.75933e-08 0)
(0.119735 -4.23454e-09 0)
(0.119735 2.56146e-09 0)
(0.119735 4.75583e-09 0)
(0.119735 5.80125e-09 0)
(0.119735 6.8207e-09 0)
(0.119735 8.36854e-09 0)
(0.119735 1.21619e-08 0)
(0.119735 2.07875e-08 0)
(0.119735 3.77156e-08 0)
(0.119735 6.65956e-08 0)
(0.119735 1.08492e-07 0)
(0.119735 1.60858e-07 0)
(0.119735 1.48422e-07 0)
(0.167811 -2.78052e-07 0)
(0.167811 -3.55816e-07 0)
(0.167811 -2.87543e-07 0)
(0.167811 -1.9563e-07 0)
(0.167811 -1.16295e-07 0)
(0.167811 -5.80354e-08 0)
(0.167811 -2.19581e-08 0)
(0.167811 -2.79892e-09 0)
(0.167811 6.95478e-09 0)
(0.167811 1.03942e-08 0)
(0.167811 1.12858e-08 0)
(0.167811 1.1884e-08 0)
(0.167811 1.39623e-08 0)
(0.167811 1.99691e-08 0)
(0.167811 3.32652e-08 0)
(0.167811 5.86871e-08 0)
(0.167811 1.01205e-07 0)
(0.167811 1.60853e-07 0)
(0.167811 2.26031e-07 0)
(0.167811 2.00354e-07 0)
(0.216065 -2.97662e-07 0)
(0.216065 -3.87745e-07 0)
(0.216065 -3.20809e-07 0)
(0.216065 -2.19387e-07 0)
(0.216065 -1.28563e-07 0)
(0.216065 -6.10237e-08 0)
(0.216065 -1.83958e-08 0)
(0.216065 4.11748e-09 0)
(0.216065 1.47237e-08 0)
(0.216065 1.77797e-08 0)
(0.216065 1.78096e-08 0)
(0.216065 1.7699e-08 0)
(0.216065 1.97646e-08 0)
(0.216065 2.69514e-08 0)
(0.216065 4.32279e-08 0)
(0.216065 7.41801e-08 0)
(0.216065 1.25137e-07 0)
(0.216064 1.94416e-07 0)
(0.216064 2.63075e-07 0)
(0.216064 2.28056e-07 0)
(0.264538 -2.73639e-07 0)
(0.264538 -3.61024e-07 0)
(0.264538 -3.00726e-07 0)
(0.264538 -2.02893e-07 0)
(0.264538 -1.13076e-07 0)
(0.264538 -4.60487e-08 0)
(0.264538 -4.0125e-09 0)
(0.264538 1.73314e-08 0)
(0.264538 2.60344e-08 0)
(0.264538 2.70861e-08 0)
(0.264538 2.52668e-08 0)
(0.264538 2.36823e-08 0)
(0.264538 2.48403e-08 0)
(0.264538 3.183e-08 0)
(0.264538 4.87061e-08 0)
(0.264538 8.10128e-08 0)
(0.264538 1.33666e-07 0)
(0.264538 2.03397e-07 0)
(0.264538 2.67853e-07 0)
(0.264538 2.29388e-07 0)
(0.31327 -2.11226e-07 0)
(0.313269 -2.82902e-07 0)
(0.313269 -2.30972e-07 0)
(0.313269 -1.46669e-07 0)
(0.313269 -6.93432e-08 0)
(0.313269 -1.25881e-08 0)
(0.313269 2.15026e-08 0)
(0.313269 3.68187e-08 0)
(0.313269 4.06776e-08 0)
(0.313269 3.79995e-08 0)
(0.313269 3.32748e-08 0)
(0.313269 2.94112e-08 0)
(0.313269 2.87492e-08 0)
(0.313269 3.41319e-08 0)
(0.313269 4.91519e-08 0)
(0.313269 7.85982e-08 0)
(0.313269 1.26452e-07 0)
(0.313269 1.88406e-07 0)
(0.313269 2.42471e-07 0)
(0.313269 2.06019e-07 0)
(0.36229 -1.1799e-07 0)
(0.36229 -1.63401e-07 0)
(0.362289 -1.19539e-07 0)
(0.362289 -5.58476e-08 0)
(0.362289 -5.29482e-10 0)
(0.362289 3.72866e-08 0)
(0.362289 5.67681e-08 0)
(0.362289 6.15666e-08 0)
(0.362289 5.7852e-08 0)
(0.362289 4.98495e-08 0)
(0.362289 4.12777e-08 0)
(0.362289 3.44586e-08 0)
(0.362289 3.12081e-08 0)
(0.362289 3.37512e-08 0)
(0.362289 4.47503e-08 0)
(0.362289 6.7689e-08 0)
(0.362289 1.05315e-07 0)
(0.362289 1.52989e-07 0)
(0.362289 1.92128e-07 0)
(0.362289 1.61985e-07 0)
(0.411623 -3.51717e-09 0)
(0.411623 -1.51496e-08 0)
(0.411622 2.17292e-08 0)
(0.411622 6.02689e-08 0)
(0.411622 8.66955e-08 0)
(0.411622 9.89662e-08 0)
(0.411622 9.86952e-08 0)
(0.411622 8.94924e-08 0)
(0.411622 7.613e-08 0)
(0.411621 6.16478e-08 0)
(0.411621 4.86039e-08 0)
(0.411621 3.84168e-08 0)
(0.411621 3.20817e-08 0)
(0.411621 3.09207e-08 0)
(0.411621 3.6337e-08 0)
(0.411622 5.01574e-08 0)
(0.411622 7.3734e-08 0)
(0.411622 1.02715e-07 0)
(0.411622 1.23904e-07 0)
(0.411622 1.02877e-07 0)
(0.461286 1.2121e-07 0)
(0.461285 1.47365e-07 0)
(0.461285 1.78272e-07 0)
(0.461285 1.89336e-07 0)
(0.461284 1.82972e-07 0)
(0.461284 1.6581e-07 0)
(0.461284 1.42799e-07 0)
(0.461284 1.17644e-07 0)
(0.461284 9.35963e-08 0)
(0.461284 7.21788e-08 0)
(0.461284 5.45201e-08 0)
(0.461284 4.09258e-08 0)
(0.461284 3.1384e-08 0)
(0.461284 2.6154e-08 0)
(0.461284 2.52108e-08 0)
(0.461284 2.8573e-08 0)
(0.461284 3.61277e-08 0)
(0.461284 4.41876e-08 0)
(0.461284 4.58059e-08 0)
(0.461284 3.51815e-08 0)
(0.511286 2.44534e-07 0)
(0.511285 3.08667e-07 0)
(0.511285 3.33924e-07 0)
(0.511285 3.17142e-07 0)
(0.511284 2.77224e-07 0)
(0.511284 2.29863e-07 0)
(0.511284 1.83702e-07 0)
(0.511284 1.42542e-07 0)
(0.511284 1.08072e-07 0)
(0.511284 8.01309e-08 0)
(0.511284 5.83031e-08 0)
(0.511284 4.1705e-08 0)
(0.511284 2.92604e-08 0)
(0.511284 2.01466e-08 0)
(0.511284 1.29079e-08 0)
(0.511284 5.7899e-09 0)
(0.511284 -2.78758e-09 0)
(0.511284 -1.57616e-08 0)
(0.511284 -3.39986e-08 0)
(0.511285 -3.43166e-08 0)
(0.561623 3.54847e-07 0)
(0.561623 4.53171e-07 0)
(0.561623 4.72072e-07 0)
(0.561622 4.28865e-07 0)
(0.561622 3.57804e-07 0)
(0.561622 2.82778e-07 0)
(0.561622 2.15818e-07 0)
(0.561622 1.60651e-07 0)
(0.561622 1.17416e-07 0)
(0.561622 8.42818e-08 0)
(0.561622 5.93393e-08 0)
(0.561622 4.05844e-08 0)
(0.561622 2.59537e-08 0)
(0.561622 1.36613e-08 0)
(0.561622 9.78263e-10 0)
(0.561622 -1.54243e-08 0)
(0.561622 -3.85265e-08 0)
(0.561622 -7.06984e-08 0)
(0.561622 -1.07752e-07 0)
(0.561623 -9.90187e-08 0)
(0.61229 4.41298e-07 0)
(0.61229 5.66069e-07 0)
(0.61229 5.76856e-07 0)
(0.61229 5.10449e-07 0)
(0.61229 4.13783e-07 0)
(0.61229 3.16868e-07 0)
(0.61229 2.34138e-07 0)
(0.61229 1.68923e-07 0)
(0.61229 1.19889e-07 0)
(0.61229 8.37217e-08 0)
(0.61229 5.72461e-08 0)
(0.61229 3.75484e-08 0)
(0.61229 2.17805e-08 0)
(0.61229 7.43467e-09 0)
(0.61229 -9.19613e-09 0)
(0.61229 -3.26786e-08 0)
(0.61229 -6.72351e-08 0)
(0.61229 -1.15044e-07 0)
(0.61229 -1.6854e-07 0)
(0.61229 -1.52918e-07 0)
(0.66327 4.94532e-07 0)
(0.66327 6.34317e-07 0)
(0.66327 6.34581e-07 0)
(0.66327 5.50174e-07 0)
(0.66327 4.36399e-07 0)
(0.66327 3.26269e-07 0)
(0.66327 2.35085e-07 0)
(0.66327 1.6538e-07 0)
(0.66327 1.14522e-07 0)
(0.66327 7.80755e-08 0)
(0.66327 5.19909e-08 0)
(0.66327 3.27822e-08 0)
(0.66327 1.71196e-08 0)
(0.66327 2.1051e-09 0)
(0.66327 -1.65402e-08 0)
(0.66327 -4.41803e-08 0)
(0.66327 -8.60023e-08 0)
(0.66327 -1.4444e-07 0)
(0.66327 -2.10656e-07 0)
(0.66327 -1.90959e-07 0)
(0.714539 5.07459e-07 0)
(0.714539 6.4781e-07 0)
(0.714539 6.35367e-07 0)
(0.714539 5.40388e-07 0)
(0.714539 4.20553e-07 0)
(0.714539 3.08055e-07 0)
(0.714539 2.17271e-07 0)
(0.714539 1.49586e-07 0)
(0.714539 1.01392e-07 0)
(0.714539 6.76527e-08 0)
(0.714539 4.39617e-08 0)
(0.714539 2.66866e-08 0)
(0.714539 1.23882e-08 0)
(0.714539 -1.84093e-09 0)
(0.714539 -2.03824e-08 0)
(0.714539 -4.8894e-08 0)
(0.714539 -9.3096e-08 0)
(0.714539 -1.56038e-07 0)
(0.714539 -2.29905e-07 0)
(0.714539 -2.09349e-07 0)
(0.766065 4.76057e-07 0)
(0.766065 6.00769e-07 0)
(0.766065 5.75081e-07 0)
(0.766065 4.79337e-07 0)
(0.766066 3.66212e-07 0)
(0.766066 2.63169e-07 0)
(0.766066 1.82041e-07 0)
(0.766066 1.22927e-07 0)
(0.766066 8.17398e-08 0)
(0.766066 5.34737e-08 0)
(0.766066 3.39496e-08 0)
(0.766066 1.9846e-08 0)
(0.766066 8.00252e-09 0)
(0.766066 -4.12042e-09 0)
(0.766066 -2.0526e-08 0)
(0.766066 -4.66529e-08 0)
(0.766066 -8.81526e-08 0)
(0.766066 -1.48744e-07 0)
(0.766066 -2.23848e-07 0)
(0.766066 -2.05811e-07 0)
(0.817811 3.99814e-07 0)
(0.817811 4.92992e-07 0)
(0.817812 4.56924e-07 0)
(0.817812 3.7231e-07 0)
(0.817812 2.79052e-07 0)
(0.817812 1.96711e-07 0)
(0.817812 1.33533e-07 0)
(0.817812 8.85494e-08 0)
(0.817813 5.78531e-08 0)
(0.817813 3.7151e-08 0)
(0.817813 2.3047e-08 0)
(0.817813 1.2944e-08 0)
(0.817813 4.32763e-09 0)
(0.817813 -4.65295e-09 0)
(0.817813 -1.72169e-08 0)
(0.817813 -3.81062e-08 0)
(0.817813 -7.2135e-08 0)
(0.817813 -1.23193e-07 0)
(0.817812 -1.91708e-07 0)
(0.817812 -1.79578e-07 0)
(0.869734 2.85806e-07 0)
(0.869735 3.37186e-07 0)
(0.869735 2.98696e-07 0)
(0.869735 2.37216e-07 0)
(0.869736 1.74169e-07 0)
(0.869736 1.20228e-07 0)
(0.869736 8.00646e-08 0)
(0.869736 5.22243e-08 0)
(0.869736 3.35655e-08 0)
(0.869736 2.10609e-08 0)
(0.869736 1.2697e-08 0)
(0.869736 6.95625e-09 0)
(0.869736 1.84436e-09 0)
(0.869736 -3.81891e-09 0)
(0.869736 -1.16968e-08 0)
(0.869736 -2.529e-08 0)
(0.869736 -4.82749e-08 0)
(0.869736 -8.38448e-08 0)
(0.869736 -1.3722e-07 0)
(0.869736 -1.32973e-07 0)
(0.921788 1.51252e-07 0)
(0.921788 1.62944e-07 0)
(0.921788 1.32972e-07 0)
(0.921788 1.01501e-07 0)
(0.921789 7.23645e-08 0)
(0.921789 4.84625e-08 0)
(0.921789 3.14114e-08 0)
(0.921789 2.00213e-08 0)
(0.921789 1.25986e-08 0)
(0.921789 7.69179e-09 0)
(0.921789 4.46958e-09 0)
(0.921789 2.31851e-09 0)
(0.921789 3.67952e-10 0)
(0.921789 -1.77935e-09 0)
(0.921789 -4.96307e-09 0)
(0.921789 -1.08308e-08 0)
(0.921789 -2.12057e-08 0)
(0.921789 -3.81499e-08 0)
(0.921789 -6.91667e-08 0)
(0.921789 -7.26642e-08 0)
(0.97392 4.35424e-08 0)
(0.97392 4.30748e-08 0)
(0.97392 3.17728e-08 0)
(0.973921 2.30794e-08 0)
(0.973921 1.57899e-08 0)
(0.973921 1.00599e-08 0)
(0.973921 6.29192e-09 0)
(0.973921 3.98618e-09 0)
(0.973921 2.48506e-09 0)
(0.973921 1.36465e-09 0)
(0.973921 6.72265e-10 0)
(0.973921 4.18445e-10 0)
(0.973921 4.09852e-11 0)
(0.973921 -5.9026e-10 0)
(0.973921 -1.31317e-09 0)
(0.973921 -2.76708e-09 0)
(0.973921 -5.46207e-09 0)
(0.973921 -9.87223e-09 0)
(0.973921 -1.95236e-08 0)
(0.973921 -2.12558e-08 0)
)
;

boundaryField
{
    top
    {
        type            fixedValue;
        value           uniform (1 0 0);
    }
    bottom
    {
        type            fixedValue;
        value           uniform (0 0 0);
    }
    inlet
    {
        type            zeroGradient;
    }
    outlet
    {
        type            zeroGradient;
    }
    frontAndBack
    {
        type            empty;
    }
}


// ************************************************************************* //
