/*--------------------------------*- C++ -*----------------------------------*\
  =========                 |
  \\      /  F ield         | OpenFOAM: The Open Source CFD Toolbox
   \\    /   O peration     | Website:  https://openfoam.org
    \\  /    A nd           | Version:  9
     \\/     M anipulation  |
\*---------------------------------------------------------------------------*/
FoamFile
{
    format      ascii;
    class       volScalarField;
    location    "2.3";
    object      p;
}
// * * * * * * * * * * * * * * * * * * * * * * * * * * * * * * * * * * * * * //

dimensions      [0 2 -2 0 0 0 0];

internalField   nonuniform List<scalar> 
400
(
1.34656e-08
2.23166e-08
2.15797e-08
2.05263e-08
1.87966e-08
1.67482e-08
1.46142e-08
1.24431e-08
1.0271e-08
8.11632e-09
5.96918e-09
3.81578e-09
1.65119e-09
-5.23641e-10
-2.70647e-09
-4.90147e-09
-7.05221e-09
-9.00389e-09
-1.14684e-08
-7.24531e-09
1.27704e-08
2.1261e-08
2.04585e-08
1.98543e-08
1.8389e-08
1.65023e-08
1.44719e-08
1.23635e-08
1.02284e-08
8.09496e-09
5.9601e-09
3.81459e-09
1.65727e-09
-5.06588e-10
-2.66661e-09
-4.81544e-09
-6.86973e-09
-8.5852e-09
-1.11951e-08
-7.05955e-09
1.29118e-08
2.1354e-08
1.98327e-08
1.94226e-08
1.80989e-08
1.63106e-08
1.43537e-08
1.22935e-08
1.01879e-08
8.07205e-09
5.94787e-09
3.80984e-09
1.65937e-09
-4.95443e-10
-2.63929e-09
-4.762e-09
-6.77726e-09
-8.38275e-09
-1.15556e-08
-7.31935e-09
1.34075e-08
2.22849e-08
1.97009e-08
1.92404e-08
1.7942e-08
1.61862e-08
1.42679e-08
1.22373e-08
1.01515e-08
8.04821e-09
5.93256e-09
3.80104e-09
1.65617e-09
-4.92903e-10
-2.6296e-09
-4.74858e-09
-6.77786e-09
-8.3975e-09
-1.22848e-08
-7.72133e-09
1.39505e-08
2.35743e-08
1.98248e-08
1.91989e-08
1.78652e-08
1.61038e-08
1.42025e-08
1.21891e-08
1.01165e-08
8.02289e-09
5.91463e-09
3.78887e-09
1.64831e-09
-4.97833e-10
-2.63399e-09
-4.76277e-09
-6.83429e-09
-8.51695e-09
-1.31003e-08
-8.10332e-09
1.44519e-08
2.49677e-08
2.00755e-08
1.92336e-08
1.78364e-08
1.60467e-08
1.41485e-08
1.21449e-08
1.00818e-08
7.99623e-09
5.89464e-09
3.77402e-09
1.63669e-09
-5.08533e-10
-2.64806e-09
-4.79316e-09
-6.91737e-09
-8.67309e-09
-1.38483e-08
-8.41411e-09
1.48941e-08
2.63239e-08
2.03795e-08
1.93052e-08
1.78333e-08
1.60038e-08
1.41002e-08
1.21022e-08
1.00468e-08
7.96859e-09
5.87325e-09
3.7573e-09
1.62241e-09
-5.22972e-10
-2.66744e-09
-4.82968e-09
-7.00592e-09
-8.82464e-09
-1.44504e-08
-8.64473e-09
1.52597e-08
2.75272e-08
2.06772e-08
1.93792e-08
1.78357e-08
1.59646e-08
1.40529e-08
1.20591e-08
1.00112e-08
7.94024e-09
5.85109e-09
3.73962e-09
1.60694e-09
-5.38627e-10
-2.68722e-09
-4.8626e-09
-7.08075e-09
-8.94064e-09
-1.48522e-08
-8.78656e-09
1.55377e-08
2.84878e-08
2.09203e-08
1.94287e-08
1.78278e-08
1.59216e-08
1.4003e-08
1.20144e-08
9.97469e-09
7.9116e-09
5.8289e-09
3.72206e-09
1.59191e-09
-5.52761e-10
-2.70264e-09
-4.88329e-09
-7.12641e-09
-8.99836e-09
-1.50228e-08
-8.83724e-09
1.57198e-08
2.91397e-08
2.10757e-08
1.94366e-08
1.78003e-08
1.5871e-08
1.39498e-08
1.19682e-08
9.93799e-09
7.88342e-09
5.80751e-09
3.7057e-09
1.57891e-09
-5.62923e-10
-2.70973e-09
-4.88539e-09
-7.13223e-09
-8.98469e-09
-1.49507e-08
-8.7974e-09
1.58001e-08
2.94402e-08
2.11249e-08
1.93962e-08
1.77507e-08
1.58132e-08
1.38946e-08
1.19222e-08
9.90242e-09
7.85674e-09
5.78781e-09
3.69148e-09
1.56919e-09
-5.67353e-10
-2.70597e-09
-4.86546e-09
-7.09318e-09
-8.8955e-09
-1.46417e-08
-8.67088e-09
1.57732e-08
2.93684e-08
2.10641e-08
1.93107e-08
1.76829e-08
1.57525e-08
1.38414e-08
1.18793e-08
9.86998e-09
7.83286e-09
5.77069e-09
3.6801e-09
1.56343e-09
-5.65326e-10
-2.69073e-09
-4.82344e-09
-7.00999e-09
-8.73508e-09
-1.41156e-08
-8.46361e-09
1.56344e-08
2.89263e-08
2.09042e-08
1.91927e-08
1.76065e-08
1.56962e-08
1.37955e-08
1.18432e-08
9.843e-09
7.81316e-09
5.7569e-09
3.6719e-09
1.56165e-09
-5.57329e-10
-2.66545e-09
-4.76283e-09
-6.88926e-09
-8.51572e-09
-1.34058e-08
-8.18377e-09
1.5382e-08
2.8143e-08
2.0672e-08
1.90638e-08
1.75356e-08
1.56537e-08
1.37631e-08
1.18178e-08
9.8238e-09
7.79891e-09
5.74698e-09
3.66687e-09
1.56315e-09
-5.45095e-10
-2.63372e-09
-4.6907e-09
-6.74343e-09
-8.25756e-09
-1.25585e-08
-7.84259e-09
1.50168e-08
2.70777e-08
2.04118e-08
1.8953e-08
1.7488e-08
1.56349e-08
1.375e-08
1.18065e-08
9.81423e-09
7.791e-09
5.74117e-09
3.66455e-09
1.56662e-09
-5.31442e-10
-2.60097e-09
-4.61726e-09
-6.59022e-09
-7.98837e-09
-1.16326e-08
-7.45475e-09
1.4549e-08
2.58264e-08
2.01818e-08
1.88941e-08
1.74812e-08
1.56488e-08
1.37603e-08
1.18111e-08
9.8152e-09
7.78975e-09
5.73931e-09
3.66419e-09
1.57027e-09
-5.19899e-10
-2.57383e-09
-4.55484e-09
-6.45143e-09
-7.74187e-09
-1.07002e-08
-7.03944e-09
1.39864e-08
2.45207e-08
2.0057e-08
1.89213e-08
1.75319e-08
1.57014e-08
1.3796e-08
1.18321e-08
9.82649e-09
7.79477e-09
5.74085e-09
3.66478e-09
1.57209e-09
-5.14321e-10
-2.55939e-09
-4.51682e-09
-6.35177e-09
-7.5588e-09
-9.8456e-09
-6.61734e-09
1.34111e-08
2.34186e-08
2.01641e-08
1.90885e-08
1.76613e-08
1.58008e-08
1.3859e-08
1.18696e-08
9.84773e-09
7.80562e-09
5.74519e-09
3.66516e-09
1.56968e-09
-5.19336e-10
-2.56608e-09
-4.51957e-09
-6.32494e-09
-7.50453e-09
-9.20906e-09
-6.245e-09
1.3085e-08
2.3003e-08
2.07375e-08
1.94848e-08
1.79065e-08
1.596e-08
1.39539e-08
1.19247e-08
9.87942e-09
7.82263e-09
5.75241e-09
3.66477e-09
1.56131e-09
-5.38874e-10
-2.60256e-09
-4.58246e-09
-6.41558e-09
-7.68388e-09
-9.03799e-09
-6.09759e-09
1.34902e-08
2.36984e-08
2.17797e-08
2.00962e-08
1.82498e-08
1.61629e-08
1.40695e-08
1.19909e-08
9.9175e-09
7.84358e-09
5.7615e-09
3.66361e-09
1.54821e-09
-5.69967e-10
-2.66374e-09
-4.69731e-09
-6.61904e-09
-8.0932e-09
-9.48372e-09
-6.4372e-09
)
;

boundaryField
{
    top
    {
        type            zeroGradient;
    }
    bottom
    {
        type            zeroGradient;
    }
    inlet
    {
        type            fixedValue;
        value           uniform 0;
    }
    outlet
    {
        type            fixedValue;
        value           uniform 0;
    }
    frontAndBack
    {
        type            empty;
    }
}


// ************************************************************************* //
