/*--------------------------------*- C++ -*----------------------------------*\
  =========                 |
  \\      /  F ield         | OpenFOAM: The Open Source CFD Toolbox
   \\    /   O peration     | Website:  https://openfoam.org
    \\  /    A nd           | Version:  9
     \\/     M anipulation  |
\*---------------------------------------------------------------------------*/
FoamFile
{
    format      ascii;
    class       surfaceScalarField;
    location    "2.3";
    object      phi;
}
// * * * * * * * * * * * * * * * * * * * * * * * * * * * * * * * * * * * * * //

dimensions      [0 3 -1 0 0 0 0];

internalField   nonuniform List<scalar> 
760
(
1.24999e-06
-8.24721e-14
1.24999e-06
-6.86324e-14
1.24999e-06
-3.26938e-14
1.24999e-06
-1.85897e-14
1.24999e-06
-1.06709e-14
1.24999e-06
-5.86463e-15
1.24999e-06
-3.21399e-15
1.24999e-06
-1.6831e-15
1.24999e-06
-8.21732e-16
1.24999e-06
-3.7421e-16
1.24999e-06
-1.40496e-16
1.24999e-06
3.04677e-18
1.24999e-06
1.35224e-16
1.24999e-06
3.49488e-16
1.24999e-06
8.2823e-16
1.24999e-06
2.09142e-15
1.24999e-06
4.98736e-15
1.24999e-06
1.11555e-14
1.24999e-06
3.51283e-14
4.05499e-14
3.74996e-06
-1.98534e-13
3.74996e-06
-1.86043e-13
3.74996e-06
-1.0637e-13
3.74996e-06
-6.33061e-14
3.74996e-06
-3.73588e-14
3.74996e-06
-2.12574e-14
3.74996e-06
-1.18743e-14
3.74996e-06
-6.39348e-15
3.74996e-06
-3.25328e-15
3.74996e-06
-1.51844e-15
3.74996e-06
-5.66265e-16
3.74996e-06
6.82914e-18
3.74996e-06
5.04562e-16
3.74996e-06
1.28566e-15
3.74996e-06
2.99249e-15
3.74996e-06
7.10755e-15
3.74996e-06
1.62902e-14
3.74996e-06
3.49793e-14
3.74996e-06
8.52494e-14
9.00937e-14
6.24993e-06
-3.01962e-13
6.24993e-06
-3.02947e-13
6.24993e-06
-1.92576e-13
6.24993e-06
-1.19253e-13
6.24993e-06
-7.2264e-14
6.24993e-06
-4.21153e-14
6.24993e-06
-2.39017e-14
6.24993e-06
-1.30739e-14
6.24993e-06
-6.78001e-15
6.24993e-06
-3.22627e-15
6.24993e-06
-1.24663e-15
6.24993e-06
-6.90014e-17
6.24993e-06
9.08535e-16
6.24993e-06
2.37825e-15
6.24993e-06
5.50796e-15
6.24993e-06
1.27147e-14
6.24993e-06
2.82323e-14
6.24993e-06
5.83978e-14
6.24993e-06
1.23698e-13
1.2379e-13
8.7499e-06
-3.79405e-13
8.7499e-06
-3.95166e-13
8.74991e-06
-2.68976e-13
8.74991e-06
-1.72591e-13
8.74991e-06
-1.07112e-13
8.74991e-06
-6.3665e-14
8.74991e-06
-3.66289e-14
8.74991e-06
-2.02742e-14
8.74991e-06
-1.06417e-14
8.74991e-06
-5.13662e-15
8.74991e-06
-2.05783e-15
8.74991e-06
-2.63031e-16
8.74991e-06
1.13927e-15
8.74991e-06
3.13185e-15
8.74991e-06
7.28518e-15
8.74991e-06
1.65919e-14
8.74991e-06
3.61272e-14
8.74991e-06
7.22411e-14
8.74991e-06
1.41279e-13
1.37019e-13
1.12499e-05
-4.22959e-13
1.12499e-05
-4.50366e-13
1.12499e-05
-3.21788e-13
1.12499e-05
-2.12648e-13
1.12499e-05
-1.34774e-13
1.12499e-05
-8.14509e-14
1.12499e-05
-4.7412e-14
1.12499e-05
-2.64756e-14
1.12499e-05
-1.40033e-14
1.12499e-05
-6.82388e-15
1.12499e-05
-2.82251e-15
1.12499e-05
-5.67389e-16
1.12499e-05
1.04091e-15
1.12499e-05
3.15092e-15
1.12499e-05
7.49261e-15
1.12499e-05
1.71534e-14
1.12499e-05
3.71813e-14
1.12499e-05
7.27309e-14
1.12499e-05
1.35625e-13
1.28554e-13
1.37499e-05
-4.30517e-13
1.37499e-05
-4.64347e-13
1.37499e-05
-3.43767e-13
1.37499e-05
-2.32677e-13
1.37499e-05
-1.50134e-13
1.37499e-05
-9.20179e-14
1.37499e-05
-5.40736e-14
1.37499e-05
-3.03766e-14
1.37499e-05
-1.61221e-14
1.37499e-05
-7.88959e-15
1.37499e-05
-3.35254e-15
1.37499e-05
-9.32561e-16
1.37499e-05
5.47559e-16
1.37499e-05
2.23242e-15
1.37499e-05
5.73367e-15
1.37499e-05
1.37471e-14
1.37499e-05
3.06033e-14
1.37499e-05
5.9606e-14
1.37499e-05
1.08904e-13
1.0069e-13
1.62498e-05
-4.03509e-13
1.62498e-05
-4.37953e-13
1.62498e-05
-3.32974e-13
1.62498e-05
-2.29703e-13
1.62498e-05
-1.5048e-13
1.62498e-05
-9.33109e-14
1.62498e-05
-5.52272e-14
1.62498e-05
-3.11068e-14
1.62498e-05
-1.64822e-14
1.62498e-05
-8.04242e-15
1.62498e-05
-3.49289e-15
1.62498e-05
-1.28358e-15
1.62498e-05
-3.10646e-16
1.62498e-05
3.92044e-16
1.62498e-05
2.05932e-15
1.62498e-05
6.60472e-15
1.62498e-05
1.71428e-14
1.62498e-05
3.49763e-14
1.62498e-05
6.54301e-14
5.7324e-14
1.87498e-05
-3.46301e-13
1.87498e-05
-3.75833e-13
1.87498e-05
-2.91589e-13
1.87498e-05
-2.04207e-13
1.87498e-05
-1.3553e-13
1.87498e-05
-8.48578e-14
1.87498e-05
-5.04512e-14
1.87498e-05
-2.83637e-14
1.87498e-05
-1.48871e-14
1.87498e-05
-7.15858e-15
1.87498e-05
-3.15881e-15
1.87498e-05
-1.54254e-15
1.87498e-05
-1.42296e-15
1.87498e-05
-2.1619e-15
1.87498e-05
-3.09697e-15
1.87498e-05
-3.36481e-15
1.87498e-05
-1.35525e-15
1.87498e-05
2.31811e-15
1.87498e-05
1.07866e-14
3.50322e-15
2.12498e-05
-2.65249e-13
2.12498e-05
-2.85272e-13
2.12498e-05
-2.2501e-13
2.12498e-05
-1.59576e-13
2.12498e-05
-1.07242e-13
2.12498e-05
-6.77304e-14
2.12498e-05
-4.03212e-14
2.12498e-05
-2.24542e-14
2.12498e-05
-1.14969e-14
2.12498e-05
-5.31099e-15
2.12498e-05
-2.35941e-15
2.12498e-05
-1.65082e-15
2.12498e-05
-2.62856e-15
2.12498e-05
-5.08356e-15
2.12498e-05
-9.04005e-15
2.12498e-05
-1.48136e-14
2.12498e-05
-2.24284e-14
2.12498e-05
-3.42118e-14
2.12498e-05
-4.90266e-14
-5.53205e-14
2.37498e-05
-1.68243e-13
2.37498e-05
-1.75496e-13
2.37498e-05
-1.41015e-13
2.37498e-05
-1.01493e-13
2.37498e-05
-6.94231e-14
2.37498e-05
-4.43301e-14
2.37498e-05
-2.62946e-14
2.37498e-05
-1.42389e-14
2.37498e-05
-6.80357e-15
2.37498e-05
-2.76174e-15
2.37498e-05
-1.20164e-15
2.37498e-05
-1.58528e-15
2.37498e-05
-3.75129e-15
2.37498e-05
-7.96032e-15
2.37498e-05
-1.49471e-14
2.37498e-05
-2.62052e-14
2.37498e-05
-4.33891e-14
2.37498e-05
-7.03273e-14
2.37498e-05
-1.08045e-13
-1.13619e-13
2.62498e-05
-6.41634e-14
2.62498e-05
-5.70281e-14
2.62498e-05
-4.90182e-14
2.62498e-05
-3.72306e-14
2.62498e-05
-2.71879e-14
2.62498e-05
-1.80139e-14
2.62498e-05
-1.0471e-14
2.62498e-05
-4.98494e-15
2.62498e-05
-1.54573e-15
2.62498e-05
8.29621e-17
2.62498e-05
1.27137e-16
2.62498e-05
-1.36384e-15
2.62498e-05
-4.63185e-15
2.62498e-05
-1.03832e-14
2.62498e-05
-2.00004e-14
2.62498e-05
-3.60358e-14
2.62498e-05
-6.16607e-14
2.62498e-05
-1.02006e-13
2.62498e-05
-1.60719e-13
-1.66154e-13
2.87498e-05
3.76178e-14
2.87498e-05
5.8883e-14
2.87498e-05
4.0689e-14
2.87498e-05
2.51291e-14
2.87498e-05
1.37041e-14
2.87498e-05
7.40354e-15
2.87498e-05
4.74796e-15
2.87498e-05
3.85307e-15
2.87498e-05
3.42526e-15
2.87498e-05
2.74917e-15
2.87498e-05
1.39585e-15
2.87498e-05
-1.03937e-15
2.87498e-05
-5.15169e-15
2.87498e-05
-1.2009e-14
2.87498e-05
-2.35024e-14
2.87498e-05
-4.30221e-14
2.87498e-05
-7.50402e-14
2.87498e-05
-1.25799e-13
2.87498e-05
-2.02179e-13
-2.08236e-13
3.12498e-05
1.27712e-13
3.12498e-05
1.60847e-13
3.12498e-05
1.17758e-13
3.12498e-05
7.75711e-14
3.12498e-05
4.76224e-14
3.12498e-05
2.82332e-14
3.12498e-05
1.70667e-14
3.12498e-05
1.0897e-14
3.12498e-05
7.30864e-15
3.12498e-05
4.79017e-15
3.12498e-05
2.37926e-15
3.12498e-05
-6.83692e-16
3.12498e-05
-5.24699e-15
3.12498e-05
-1.26081e-14
3.12498e-05
-2.49682e-14
3.12498e-05
-4.62507e-14
3.12498e-05
-8.19095e-14
3.12498e-05
-1.39072e-13
3.12498e-05
-2.28462e-13
-2.35956e-13
3.37498e-05
1.97344e-13
3.37498e-05
2.38044e-13
3.37498e-05
1.72713e-13
3.37498e-05
1.1316e-13
3.37498e-05
6.99023e-14
3.37498e-05
4.15423e-14
3.37498e-05
2.47167e-14
3.37498e-05
1.51166e-14
3.37498e-05
9.51861e-15
3.37498e-05
5.88316e-15
3.37498e-05
2.90984e-15
3.37498e-05
-3.66465e-16
3.37498e-05
-4.91324e-15
3.37498e-05
-1.20963e-14
3.37498e-05
-2.41918e-14
3.37498e-05
-4.52908e-14
3.37498e-05
-8.1406e-14
3.37498e-05
-1.40218e-13
3.37498e-05
-2.36727e-13
-2.46416e-13
3.62499e-05
2.38785e-13
3.62499e-05
2.80999e-13
3.62499e-05
1.98179e-13
3.62499e-05
1.27139e-13
3.62499e-05
7.77346e-14
3.62499e-05
4.57414e-14
3.62499e-05
2.68386e-14
3.62499e-05
1.6056e-14
3.62499e-05
9.81969e-15
3.62499e-05
5.9061e-15
3.62499e-05
2.9203e-15
3.62499e-05
-1.35541e-16
3.62499e-05
-4.20302e-15
3.62499e-05
-1.05509e-14
3.62499e-05
-2.12864e-14
3.62499e-05
-4.02735e-14
3.62499e-05
-7.35604e-14
3.62499e-05
-1.28879e-13
3.62499e-05
-2.25481e-13
-2.37912e-13
3.87499e-05
2.46572e-13
3.87499e-05
2.83034e-13
3.87499e-05
1.90321e-13
3.87499e-05
1.18223e-13
3.87499e-05
7.09366e-14
3.87499e-05
4.1065e-14
3.87499e-05
2.37305e-14
3.87499e-05
1.39716e-14
3.87499e-05
8.39623e-15
3.87499e-05
4.97608e-15
3.87499e-05
2.46429e-15
3.87499e-05
-5.19359e-18
3.87499e-05
-3.22025e-15
3.87499e-05
-8.21035e-15
3.87499e-05
-1.66971e-14
3.87499e-05
-3.19362e-14
3.87499e-05
-5.94217e-14
3.87499e-05
-1.06192e-13
3.87499e-05
-1.94998e-13
-2.10304e-13
4.12499e-05
2.1791e-13
4.12499e-05
2.41747e-13
4.12499e-05
1.51023e-13
4.12499e-05
8.97181e-14
4.12499e-05
5.25605e-14
4.12499e-05
2.97536e-14
4.12499e-05
1.69043e-14
4.12499e-05
9.81933e-15
4.12499e-05
5.83425e-15
4.12499e-05
3.43256e-15
4.12499e-05
1.70809e-15
4.12499e-05
4.30304e-17
4.12499e-05
-2.11287e-15
4.12499e-05
-5.46023e-15
4.12499e-05
-1.11849e-14
4.12499e-05
-2.16333e-14
4.12499e-05
-4.11473e-14
4.12499e-05
-7.5139e-14
4.12499e-05
-1.47786e-13
-1.65332e-13
4.37499e-05
1.55939e-13
4.37499e-05
1.63198e-13
4.37499e-05
9.01772e-14
4.37499e-05
5.06176e-14
4.37499e-05
2.88687e-14
4.37499e-05
1.58712e-14
4.37499e-05
8.83745e-15
4.37499e-05
5.0773e-15
4.37499e-05
2.99764e-15
4.37499e-05
1.76484e-15
4.37499e-05
8.90632e-16
4.37499e-05
4.49957e-17
4.37499e-05
-1.06609e-15
4.37499e-05
-2.8007e-15
4.37499e-05
-5.77685e-15
4.37499e-05
-1.12963e-14
4.37499e-05
-2.20976e-14
4.37499e-05
-4.10283e-14
4.37499e-05
-8.99262e-14
-1.07603e-13
4.625e-05
6.89132e-14
4.625e-05
6.60735e-14
4.625e-05
2.94801e-14
4.625e-05
1.5163e-14
4.625e-05
8.49195e-15
4.625e-05
4.45338e-15
4.625e-05
2.41249e-15
4.625e-05
1.37464e-15
4.625e-05
8.13524e-16
4.625e-05
4.87802e-16
4.625e-05
2.5957e-16
4.625e-05
3.09022e-17
4.625e-05
-2.90653e-16
4.625e-05
-7.99623e-16
4.625e-05
-1.66145e-15
4.625e-05
-3.28473e-15
4.625e-05
-6.69718e-15
4.625e-05
-1.23887e-14
4.625e-05
-3.28879e-14
-4.45401e-14
4.875e-05
4.875e-05
4.875e-05
4.875e-05
4.875e-05
4.875e-05
4.875e-05
4.875e-05
4.875e-05
4.875e-05
4.875e-05
4.875e-05
4.875e-05
4.875e-05
4.875e-05
4.875e-05
4.875e-05
4.875e-05
4.875e-05
)
;

boundaryField
{
    top
    {
        type            calculated;
        value           uniform 0;
    }
    bottom
    {
        type            calculated;
        value           uniform 0;
    }
    inlet
    {
        type            calculated;
        value           nonuniform List<scalar> 
20
(
-1.24999e-06
-3.74996e-06
-6.24993e-06
-8.7499e-06
-1.12499e-05
-1.37499e-05
-1.62498e-05
-1.87498e-05
-2.12498e-05
-2.37498e-05
-2.62498e-05
-2.87498e-05
-3.12498e-05
-3.37498e-05
-3.62499e-05
-3.87499e-05
-4.12499e-05
-4.37499e-05
-4.625e-05
-4.875e-05
)
;
    }
    outlet
    {
        type            calculated;
        value           nonuniform List<scalar> 
20
(
1.24999e-06
3.74996e-06
6.24993e-06
8.74991e-06
1.12499e-05
1.37499e-05
1.62498e-05
1.87498e-05
2.12498e-05
2.37498e-05
2.62498e-05
2.87498e-05
3.12498e-05
3.37498e-05
3.62499e-05
3.87499e-05
4.12499e-05
4.37499e-05
4.625e-05
4.875e-05
)
;
    }
    frontAndBack
    {
        type            empty;
        value           nonuniform List<scalar> 0();
    }
}


// ************************************************************************* //
