/*--------------------------------*- C++ -*----------------------------------*\
  =========                 |
  \\      /  F ield         | OpenFOAM: The Open Source CFD Toolbox
   \\    /   O peration     | Website:  https://openfoam.org
    \\  /    A nd           | Version:  9
     \\/     M anipulation  |
\*---------------------------------------------------------------------------*/
FoamFile
{
    format      ascii;
    class       volVectorField;
    location    "2.3";
    object      U;
}
// * * * * * * * * * * * * * * * * * * * * * * * * * * * * * * * * * * * * * //

dimensions      [0 1 -1 0 0 0 0];

internalField   nonuniform List<vector> 
400
(
(0.0249997 -4.03555e-10 0)
(0.0249997 -3.22747e-10 0)
(0.0249997 -1.35546e-10 0)
(0.0249997 -7.2194e-11 0)
(0.0249997 -3.98082e-11 0)
(0.0249997 -2.10822e-11 0)
(0.0249997 -1.13594e-11 0)
(0.0249997 -5.68142e-12 0)
(0.0249997 -2.56031e-12 0)
(0.0249997 -1.09334e-12 0)
(0.0249997 -3.95625e-13 0)
(0.0249997 5.78471e-14 0)
(0.0249997 5.28492e-13 0)
(0.0249997 1.32702e-12 0)
(0.0249997 3.162e-12 0)
(0.0249997 8.40645e-12 0)
(0.0249997 2.09945e-11 0)
(0.0249997 5.01049e-11 0)
(0.0249997 1.77048e-10 0)
(0.0249997 2.07626e-10 0)
(0.0749991 -1.38962e-09 0)
(0.0749991 -1.23536e-09 0)
(0.0749992 -6.44821e-10 0)
(0.0749992 -3.70096e-10 0)
(0.0749992 -2.13729e-10 0)
(0.0749992 -1.18814e-10 0)
(0.0749992 -6.532e-11 0)
(0.0749992 -3.45482e-11 0)
(0.0749992 -1.71347e-11 0)
(0.0749992 -7.77875e-12 0)
(0.0749992 -2.76919e-12 0)
(0.0749992 2.61739e-13 0)
(0.0749992 2.99439e-12 0)
(0.0749992 7.44328e-12 0)
(0.0749992 1.74197e-11 0)
(0.0749992 4.26052e-11 0)
(0.0749992 1.00179e-10 0)
(0.0749992 2.22966e-10 0)
(0.0749992 6.05965e-10 0)
(0.0749992 6.65241e-10 0)
(0.124999 -2.52732e-09 0)
(0.124999 -2.45438e-09 0)
(0.124999 -1.48244e-09 0)
(0.124999 -8.9695e-10 0)
(0.124999 -5.35023e-10 0)
(0.124999 -3.07658e-10 0)
(0.124999 -1.73016e-10 0)
(0.124999 -9.37628e-11 0)
(0.124999 -4.81131e-11 0)
(0.124999 -2.26523e-11 0)
(0.124999 -8.56214e-12 0)
(0.124999 -7.48598e-14 0)
(0.124999 7.23017e-12 0)
(0.124999 1.85398e-11 0)
(0.124999 4.29404e-11 0)
(0.124999 1.00288e-10 0)
(0.124999 2.2593e-10 0)
(0.124999 4.76715e-10 0)
(0.124999 1.07251e-09 0)
(0.124999 1.10306e-09 0)
(0.174998 -3.47748e-09 0)
(0.174998 -3.55657e-09 0)
(0.174998 -2.34519e-09 0)
(0.174998 -1.47721e-09 0)
(0.174998 -9.04926e-10 0)
(0.174998 -5.32105e-10 0)
(0.174998 -3.0379e-10 0)
(0.174998 -1.67117e-10 0)
(0.174998 -8.72258e-11 0)
(0.174998 -4.18178e-11 0)
(0.174998 -1.64173e-11 0)
(0.174998 -1.37567e-12 0)
(0.174998 1.0875e-11 0)
(0.174998 2.89113e-11 0)
(0.174998 6.68625e-11 0)
(0.174998 1.52765e-10 0)
(0.174998 3.34987e-10 0)
(0.174998 6.79978e-10 0)
(0.174998 1.3732e-09 0)
(0.174998 1.35482e-09 0)
(0.224998 -4.10061e-09 0)
(0.224998 -4.32122e-09 0)
(0.224998 -3.02143e-09 0)
(0.224998 -1.96815e-09 0)
(0.224998 -1.23409e-09 0)
(0.224998 -7.39522e-10 0)
(0.224998 -4.27906e-10 0)
(0.224998 -2.37967e-10 0)
(0.224998 -1.2549e-10 0)
(0.224998 -6.09275e-11 0)
(0.224998 -2.4796e-11 0)
(0.224998 -3.95308e-12 0)
(0.224998 1.18212e-11 0)
(0.224998 3.35554e-11 0)
(0.224998 7.83991e-11 0)
(0.224998 1.7793e-10 0)
(0.224998 3.8463e-10 0)
(0.224998 7.58029e-10 0)
(0.224998 1.43696e-09 0)
(0.224998 1.37993e-09 0)
(0.274997 -4.35658e-09 0)
(0.274997 -4.67195e-09 0)
(0.274997 -3.40695e-09 0)
(0.274997 -2.28085e-09 0)
(0.274997 -1.45916e-09 0)
(0.274997 -8.88373e-10 0)
(0.274997 -5.19764e-10 0)
(0.274997 -2.91309e-10 0)
(0.274997 -1.54527e-10 0)
(0.274997 -7.55875e-11 0)
(0.274997 -3.17195e-11 0)
(0.274997 -7.47432e-12 0)
(0.274997 8.8858e-12 0)
(0.274997 2.92595e-11 0)
(0.274997 7.10159e-11 0)
(0.274997 1.64128e-10 0)
(0.274997 3.56875e-10 0)
(0.274997 6.92451e-10 0)
(0.274997 1.26769e-09 0)
(0.274997 1.19019e-09 0)
(0.324997 -4.25175e-09 0)
(0.324997 -4.60339e-09 0)
(0.324997 -3.46241e-09 0)
(0.324997 -2.36922e-09 0)
(0.324997 -1.54151e-09 0)
(0.324997 -9.50951e-10 0)
(0.324997 -5.61215e-10 0)
(0.324997 -3.16015e-10 0)
(0.324997 -1.67865e-10 0)
(0.324997 -8.22309e-11 0)
(0.324997 -3.53949e-11 0)
(0.324997 -1.12705e-11 0)
(0.324997 1.9199e-12 0)
(0.324997 1.51361e-11 0)
(0.324997 4.31658e-11 0)
(0.324997 1.09839e-10 0)
(0.324997 2.53266e-10 0)
(0.324997 4.96565e-10 0)
(0.324997 9.04933e-10 0)
(0.324997 8.22673e-10 0)
(0.374997 -3.81717e-09 0)
(0.374997 -4.14666e-09 0)
(0.374997 -3.19224e-09 0)
(0.374997 -2.22215e-09 0)
(0.374997 -1.4665e-09 0)
(0.374997 -9.14498e-10 0)
(0.374997 -5.42991e-10 0)
(0.374997 -3.06003e-10 0)
(0.374997 -1.6177e-10 0)
(0.374997 -7.86605e-11 0)
(0.374997 -3.45362e-11 0)
(0.374997 -1.45081e-11 0)
(0.374997 -8.2978e-12 0)
(0.374997 -7.56847e-12 0)
(0.374997 -2.45714e-12 0)
(0.374997 2.13904e-11 0)
(0.374997 8.80414e-11 0)
(0.374997 2.00682e-10 0)
(0.374997 4.00577e-10 0)
(0.374997 3.23571e-10 0)
(0.424996 -3.1079e-09 0)
(0.424996 -3.3634e-09 0)
(0.424996 -2.63622e-09 0)
(0.424996 -1.86029e-09 0)
(0.424996 -1.24316e-09 0)
(0.424996 -7.82279e-10 0)
(0.424996 -4.65938e-10 0)
(0.424996 -2.61291e-10 0)
(0.424996 -1.36032e-10 0)
(0.424996 -6.45847e-11 0)
(0.424996 -2.87242e-11 0)
(0.424996 -1.64507e-11 0)
(0.424996 -2.03199e-11 0)
(0.424996 -3.59153e-11 0)
(0.424996 -5.9879e-11 0)
(0.424996 -8.9323e-11 0)
(0.424996 -1.1621e-10 0)
(0.424996 -1.55628e-10 0)
(0.424996 -1.85995e-10 0)
(0.424996 -2.53418e-10 0)
(0.474996 -2.19637e-09 0)
(0.474996 -2.33775e-09 0)
(0.474996 -1.86213e-09 0)
(0.474996 -1.33056e-09 0)
(0.474996 -9.0143e-10 0)
(0.474996 -5.72373e-10 0)
(0.474996 -3.40645e-10 0)
(0.474996 -1.8796e-10 0)
(0.474996 -9.40417e-11 0)
(0.474996 -4.17407e-11 0)
(0.474996 -1.85538e-11 0)
(0.474996 -1.66607e-11 0)
(0.474996 -3.23757e-11 0)
(0.474996 -6.5932e-11 0)
(0.474996 -1.21174e-10 0)
(0.474996 -2.07294e-10 0)
(0.474996 -3.3286e-10 0)
(0.474996 -5.29021e-10 0)
(0.474996 -7.93969e-10 0)
(0.474996 -8.52551e-10 0)
(0.524996 -1.16785e-09 0)
(0.524996 -1.17006e-09 0)
(0.524996 -9.5778e-10 0)
(0.524996 -6.99612e-10 0)
(0.524996 -4.87422e-10 0)
(0.524996 -3.14658e-10 0)
(0.524996 -1.85627e-10 0)
(0.524996 -9.71083e-11 0)
(0.524996 -4.22283e-11 0)
(0.524996 -1.36237e-11 0)
(0.524996 -5.56646e-12 0)
(0.524996 -1.51145e-11 0)
(0.524996 -4.27195e-11 0)
(0.524996 -9.33472e-11 0)
(0.524996 -1.77833e-10 0)
(0.524996 -3.16817e-10 0)
(0.524996 -5.34849e-10 0)
(0.524996 -8.77094e-10 0)
(0.524996 -1.36492e-09 0)
(0.524996 -1.41917e-09 0)
(0.574996 -1.14829e-10 0)
(0.574996 2.92971e-11 0)
(0.574996 -2.36891e-11 0)
(0.574996 -4.62566e-11 0)
(0.574996 -5.73008e-11 0)
(0.574996 -4.63525e-11 0)
(0.574996 -2.43351e-11 0)
(0.574996 -2.9603e-12 0)
(0.574996 1.10787e-11 0)
(0.574996 1.51448e-11 0)
(0.574996 8.03303e-12 0)
(0.574996 -1.21977e-11 0)
(0.574996 -4.99191e-11 0)
(0.574996 -1.14268e-10 0)
(0.574996 -2.22028e-10 0)
(0.574996 -4.03547e-10 0)
(0.574996 -6.97702e-10 0)
(0.574996 -1.1618e-09 0)
(0.574996 -1.84612e-09 0)
(0.574996 -1.90301e-09 0)
(0.624997 8.67399e-10 0)
(0.624997 1.14545e-09 0)
(0.624997 8.3478e-10 0)
(0.624997 5.46672e-10 0)
(0.624997 3.29962e-10 0)
(0.624997 1.93482e-10 0)
(0.624997 1.18683e-10 0)
(0.624997 7.96316e-11 0)
(0.624997 5.71945e-11 0)
(0.624997 3.97119e-11 0)
(0.624997 1.98294e-11 0)
(0.624997 -8.58598e-12 0)
(0.624997 -5.30453e-11 0)
(0.624997 -1.25738e-10 0)
(0.624997 -2.47661e-10 0)
(0.624997 -4.56187e-10 0)
(0.624997 -8.01855e-10 0)
(0.624997 -1.35216e-09 0)
(0.624997 -2.19282e-09 0)
(0.624997 -2.26047e-09 0)
(0.674997 1.68678e-09 0)
(0.674997 2.06555e-09 0)
(0.674997 1.51593e-09 0)
(0.674997 1.00185e-09 0)
(0.674997 6.20722e-10 0)
(0.674997 3.70184e-10 0)
(0.674997 2.22067e-10 0)
(0.674997 1.37975e-10 0)
(0.674997 8.87925e-11 0)
(0.674997 5.60012e-11 0)
(0.674997 2.77325e-11 0)
(0.674997 -5.0447e-12 0)
(0.674997 -5.17614e-11 0)
(0.674997 -1.26141e-10 0)
(0.674997 -2.51159e-10 0)
(0.674997 -4.67803e-10 0)
(0.674997 -8.34558e-10 0)
(0.674997 -1.42649e-09 0)
(0.674997 -2.37049e-09 0)
(0.674997 -2.45705e-09 0)
(0.724997 2.25893e-09 0)
(0.724997 2.68571e-09 0)
(0.724997 1.93252e-09 0)
(0.724997 1.25794e-09 0)
(0.724997 7.7554e-10 0)
(0.724997 4.59762e-10 0)
(0.724997 2.71846e-10 0)
(0.724997 1.64151e-10 0)
(0.724997 1.01489e-10 0)
(0.724997 6.16312e-11 0)
(0.724997 3.04809e-11 0)
(0.724997 -2.20719e-12 0)
(0.724997 -4.63246e-11 0)
(0.724997 -1.15431e-10 0)
(0.724997 -2.32013e-10 0)
(0.724997 -4.36777e-10 0)
(0.724997 -7.91377e-10 0)
(0.724997 -1.37448e-09 0)
(0.724997 -2.35684e-09 0)
(0.724997 -2.4692e-09 0)
(0.774998 2.51588e-09 0)
(0.774998 2.92106e-09 0)
(0.774998 2.0235e-09 0)
(0.774998 1.28143e-09 0)
(0.774998 7.77501e-10 0)
(0.774998 4.5446e-10 0)
(0.774998 2.64732e-10 0)
(0.774998 1.56945e-10 0)
(0.774998 9.49267e-11 0)
(0.774998 5.65289e-11 0)
(0.774998 2.79789e-11 0)
(0.774998 -4.03553e-13 0)
(0.774998 -3.75344e-11 0)
(0.774998 -9.52002e-11 0)
(0.774998 -1.93005e-10 0)
(0.774998 -3.67351e-10 0)
(0.774998 -6.77354e-10 0)
(0.774998 -1.19901e-09 0)
(0.774998 -2.14431e-09 0)
(0.774998 -2.28682e-09 0)
(0.824998 2.406e-09 0)
(0.824998 2.71375e-09 0)
(0.824998 1.77023e-09 0)
(0.824998 1.07761e-09 0)
(0.824998 6.39107e-10 0)
(0.824998 3.66045e-10 0)
(0.824998 2.09687e-10 0)
(0.824998 1.22474e-10 0)
(0.824998 7.30365e-11 0)
(0.824998 4.30374e-11 0)
(0.824998 2.1368e-11 0)
(0.824998 4.15428e-13 0)
(0.824998 -2.66303e-11 0)
(0.824998 -6.85429e-11 0)
(0.824998 -1.40091e-10 0)
(0.824998 -2.69733e-10 0)
(0.824998 -5.07703e-10 0)
(0.824998 -9.1828e-10 0)
(0.824998 -1.74161e-09 0)
(0.824998 -1.91323e-09 0)
(0.874999 1.92154e-09 0)
(0.874999 2.07288e-09 0)
(0.874999 1.22676e-09 0)
(0.874999 7.0783e-10 0)
(0.874999 4.08366e-10 0)
(0.874999 2.27706e-10 0)
(0.874999 1.27946e-10 0)
(0.874999 7.37833e-11 0)
(0.874999 4.35962e-11 0)
(0.874999 2.558e-11 0)
(0.874999 1.2785e-11 0)
(0.874999 5.01372e-13 0)
(0.874999 -1.54539e-11 0)
(0.874999 -4.02676e-11 0)
(0.874999 -8.27395e-11 0)
(0.874999 -1.6099e-10 0)
(0.874999 -3.1077e-10 0)
(0.874999 -5.74002e-10 0)
(0.874999 -1.18934e-09 0)
(0.874999 -1.37482e-09 0)
(0.924999 1.14074e-09 0)
(0.924999 1.1486e-09 0)
(0.924999 5.76529e-10 0)
(0.924999 3.05917e-10 0)
(0.924999 1.70794e-10 0)
(0.924999 9.13327e-11 0)
(0.924999 4.99115e-11 0)
(0.924999 2.844e-11 0)
(0.924999 1.67655e-11 0)
(0.924999 9.94e-12 0)
(0.924999 5.1292e-12 0)
(0.924999 3.98455e-13 0)
(0.924999 -5.99003e-12 0)
(0.924999 -1.60439e-11 0)
(0.924999 -3.33071e-11 0)
(0.924999 -6.57573e-11 0)
(0.924999 -1.31649e-10 0)
(0.924999 -2.46927e-10 0)
(0.924999 -5.94025e-10 0)
(0.924999 -7.49582e-10 0)
(0.975 3.52368e-10 0)
(0.975 3.29355e-10 0)
(0.975 1.31296e-10 0)
(0.975 6.09525e-11 0)
(0.975 3.26961e-11 0)
(0.975 1.62641e-11 0)
(0.975 8.512e-12 0)
(0.975 4.79622e-12 0)
(0.975 2.82914e-12 0)
(0.975 1.69475e-12 0)
(0.975 8.99533e-13 0)
(0.975 5.99605e-14 0)
(0.975 -1.21471e-12 0)
(0.975 -3.26603e-12 0)
(0.975 -6.61901e-12 0)
(0.975 -1.30216e-11 0)
(0.975 -2.74593e-11 0)
(0.975 -5.1596e-11 0)
(0.975 -1.54602e-10 0)
(0.975 -2.16227e-10 0)
)
;

boundaryField
{
    top
    {
        type            fixedValue;
        value           uniform (1 0 0);
    }
    bottom
    {
        type            fixedValue;
        value           uniform (0 0 0);
    }
    inlet
    {
        type            zeroGradient;
    }
    outlet
    {
        type            zeroGradient;
    }
    frontAndBack
    {
        type            empty;
    }
}


// ************************************************************************* //
