/*--------------------------------*- C++ -*----------------------------------*\
  =========                 |
  \\      /  F ield         | OpenFOAM: The Open Source CFD Toolbox
   \\    /   O peration     | Website:  https://openfoam.org
    \\  /    A nd           | Version:  9
     \\/     M anipulation  |
\*---------------------------------------------------------------------------*/
FoamFile
{
    format      ascii;
    class       volScalarField;
    location    "3";
    object      p;
}
// * * * * * * * * * * * * * * * * * * * * * * * * * * * * * * * * * * * * * //

dimensions      [0 2 -2 0 0 0 0];

internalField   nonuniform List<scalar> 
400
(
1.60137e-09
2.65395e-09
2.5663e-09
2.44103e-09
2.23534e-09
1.99173e-09
1.73796e-09
1.47977e-09
1.22147e-09
9.65224e-10
7.09881e-10
4.53792e-10
1.96373e-10
-6.22618e-11
-3.21845e-10
-5.82875e-10
-8.38641e-10
-1.07073e-09
-1.36384e-09
-8.61631e-10
1.51871e-09
2.52844e-09
2.43301e-09
2.36117e-09
2.1869e-09
1.96253e-09
1.72107e-09
1.47033e-09
1.2164e-09
9.62689e-10
7.08802e-10
4.5365e-10
1.97093e-10
-6.02424e-11
-3.17124e-10
-5.72675e-10
-8.16983e-10
-1.021e-09
-1.33136e-09
-8.39546e-10
1.53551e-09
2.5395e-09
2.35857e-09
2.30981e-09
2.15239e-09
1.93972e-09
1.70699e-09
1.46199e-09
1.21159e-09
9.59962e-10
7.07348e-10
4.53086e-10
1.97345e-10
-5.89137e-11
-3.13868e-10
-5.6631e-10
-8.05972e-10
-9.96904e-10
-1.37423e-09
-8.7044e-10
1.59447e-09
2.65019e-09
2.3429e-09
2.28814e-09
2.13373e-09
1.92492e-09
1.69679e-09
1.45531e-09
1.20725e-09
9.57126e-10
7.05527e-10
4.52039e-10
1.96964e-10
-5.86103e-11
-3.12713e-10
-5.64709e-10
-8.06037e-10
-9.98651e-10
-1.46094e-09
-9.18243e-10
1.65904e-09
2.80354e-09
2.35763e-09
2.2832e-09
2.1246e-09
1.91512e-09
1.68901e-09
1.44958e-09
1.20309e-09
9.54115e-10
7.03394e-10
4.50592e-10
1.9603e-10
-5.91967e-11
-3.13236e-10
-5.66397e-10
-8.12749e-10
-1.01286e-09
-1.55793e-09
-9.63671e-10
1.71866e-09
2.96924e-09
2.38745e-09
2.28733e-09
2.12117e-09
1.90833e-09
1.68259e-09
1.44431e-09
1.19896e-09
9.50944e-10
7.01017e-10
4.48827e-10
1.94648e-10
-6.04693e-11
-3.14909e-10
-5.70012e-10
-8.22629e-10
-1.03143e-09
-1.64688e-09
-1.00063e-09
1.77126e-09
3.13053e-09
2.42361e-09
2.29585e-09
2.1208e-09
1.90322e-09
1.67685e-09
1.43924e-09
1.19481e-09
9.47657e-10
6.98473e-10
4.46837e-10
1.9295e-10
-6.21864e-11
-3.17213e-10
-5.74355e-10
-8.3316e-10
-1.04945e-09
-1.71849e-09
-1.02806e-09
1.81474e-09
3.27363e-09
2.459e-09
2.30464e-09
2.12108e-09
1.89857e-09
1.67122e-09
1.43411e-09
1.19057e-09
9.44286e-10
6.95838e-10
4.44735e-10
1.9111e-10
-6.40479e-11
-3.19566e-10
-5.7827e-10
-8.42059e-10
-1.06324e-09
-1.76627e-09
-1.04492e-09
1.8478e-09
3.38787e-09
2.48791e-09
2.31053e-09
2.12015e-09
1.89346e-09
1.66529e-09
1.42879e-09
1.18623e-09
9.4088e-10
6.93199e-10
4.42647e-10
1.89323e-10
-6.57289e-11
-3.21399e-10
-5.8073e-10
-8.47489e-10
-1.07011e-09
-1.78656e-09
-1.05095e-09
1.86946e-09
3.46539e-09
2.50639e-09
2.31146e-09
2.11688e-09
1.88744e-09
1.65896e-09
1.4233e-09
1.18186e-09
9.37529e-10
6.90655e-10
4.40701e-10
1.87777e-10
-6.69372e-11
-3.22242e-10
-5.8098e-10
-8.48181e-10
-1.06848e-09
-1.77799e-09
-1.04621e-09
1.879e-09
3.50113e-09
2.51225e-09
2.30666e-09
2.11098e-09
1.88057e-09
1.6524e-09
1.41783e-09
1.17763e-09
9.34356e-10
6.88313e-10
4.3901e-10
1.86621e-10
-6.74643e-11
-3.21796e-10
-5.7861e-10
-8.43538e-10
-1.05788e-09
-1.74123e-09
-1.03117e-09
1.87581e-09
3.49259e-09
2.50502e-09
2.2965e-09
2.10292e-09
1.87335e-09
1.64607e-09
1.41273e-09
1.17378e-09
9.31516e-10
6.86276e-10
4.37656e-10
1.85936e-10
-6.72232e-11
-3.19983e-10
-5.73612e-10
-8.33644e-10
-1.0388e-09
-1.67867e-09
-1.00652e-09
1.8593e-09
3.44001e-09
2.486e-09
2.28247e-09
2.09383e-09
1.86665e-09
1.64062e-09
1.40844e-09
1.17057e-09
9.29173e-10
6.84636e-10
4.36682e-10
1.85724e-10
-6.62719e-11
-3.16976e-10
-5.66404e-10
-8.19286e-10
-1.01271e-09
-1.59426e-09
-9.73237e-10
1.82928e-09
3.34686e-09
2.45838e-09
2.26714e-09
2.0854e-09
1.86159e-09
1.63676e-09
1.40542e-09
1.16828e-09
9.27478e-10
6.83457e-10
4.36083e-10
1.85903e-10
-6.48171e-11
-3.13202e-10
-5.57826e-10
-8.01944e-10
-9.82011e-10
-1.49349e-09
-9.32663e-10
1.78585e-09
3.22018e-09
2.42745e-09
2.25396e-09
2.07973e-09
1.85936e-09
1.6352e-09
1.40407e-09
1.16715e-09
9.26538e-10
6.82766e-10
4.35808e-10
1.86316e-10
-6.31931e-11
-3.09308e-10
-5.49093e-10
-7.83724e-10
-9.49998e-10
-1.38339e-09
-8.8654e-10
1.73022e-09
3.07136e-09
2.40008e-09
2.24696e-09
2.07893e-09
1.86101e-09
1.63642e-09
1.40463e-09
1.16726e-09
9.26389e-10
6.82544e-10
4.35765e-10
1.8675e-10
-6.18202e-11
-3.06081e-10
-5.41668e-10
-7.67218e-10
-9.20682e-10
-1.27249e-09
-8.3715e-10
1.66332e-09
2.91608e-09
2.38524e-09
2.25019e-09
2.08496e-09
1.86727e-09
1.64067e-09
1.40712e-09
1.1686e-09
9.26986e-10
6.82727e-10
4.35835e-10
1.86965e-10
-6.1157e-11
-3.04363e-10
-5.37146e-10
-7.55366e-10
-8.9891e-10
-1.17086e-09
-7.86953e-10
1.59489e-09
2.78503e-09
2.39799e-09
2.27008e-09
2.10034e-09
1.87909e-09
1.64817e-09
1.41158e-09
1.17113e-09
9.28277e-10
6.83243e-10
4.35881e-10
1.86678e-10
-6.17559e-11
-3.05162e-10
-5.37477e-10
-7.5218e-10
-8.92463e-10
-1.09517e-09
-7.42673e-10
1.55611e-09
2.73561e-09
2.4662e-09
2.31722e-09
2.12952e-09
1.89803e-09
1.65946e-09
1.41815e-09
1.17491e-09
9.30303e-10
6.84103e-10
4.35834e-10
1.85681e-10
-6.40839e-11
-3.09508e-10
-5.44968e-10
-7.62972e-10
-9.13806e-10
-1.07483e-09
-7.25148e-10
1.6043e-09
2.81829e-09
2.59009e-09
2.38988e-09
2.17031e-09
1.92213e-09
1.67319e-09
1.42599e-09
1.17942e-09
9.32788e-10
6.85182e-10
4.35697e-10
1.84129e-10
-6.77674e-11
-3.16761e-10
-5.58595e-10
-7.87132e-10
-9.62438e-10
-1.12782e-09
-7.65527e-10
)
;

boundaryField
{
    top
    {
        type            zeroGradient;
    }
    bottom
    {
        type            zeroGradient;
    }
    inlet
    {
        type            fixedValue;
        value           uniform 0;
    }
    outlet
    {
        type            fixedValue;
        value           uniform 0;
    }
    frontAndBack
    {
        type            empty;
    }
}


// ************************************************************************* //
