/*--------------------------------*- C++ -*----------------------------------*\
  =========                 |
  \\      /  F ield         | OpenFOAM: The Open Source CFD Toolbox
   \\    /   O peration     | Website:  https://openfoam.org
    \\  /    A nd           | Version:  9
     \\/     M anipulation  |
\*---------------------------------------------------------------------------*/
FoamFile
{
    format      ascii;
    class       surfaceScalarField;
    location    "3";
    object      phi;
}
// * * * * * * * * * * * * * * * * * * * * * * * * * * * * * * * * * * * * * //

dimensions      [0 3 -1 0 0 0 0];

internalField   nonuniform List<scalar> 
760
(
1.25e-06
-9.80787e-15
1.25e-06
-8.16202e-15
1.25e-06
-3.88801e-15
1.25e-06
-2.21076e-15
1.25e-06
-1.26903e-15
1.25e-06
-6.97439e-16
1.25e-06
-3.82218e-16
1.25e-06
-2.0016e-16
1.25e-06
-9.77245e-17
1.25e-06
-4.45094e-17
1.25e-06
-1.67145e-17
1.25e-06
3.65298e-19
1.25e-06
1.60859e-17
1.25e-06
4.15714e-17
1.25e-06
9.84964e-17
1.25e-06
2.4872e-16
1.25e-06
5.93116e-16
1.25e-06
1.32654e-15
1.25e-06
4.17763e-15
4.82232e-15
3.74999e-06
-2.36103e-14
3.74999e-06
-2.21249e-14
3.74999e-06
-1.26498e-14
3.74999e-06
-7.5286e-15
3.74999e-06
-4.44286e-15
3.74999e-06
-2.52802e-15
3.74999e-06
-1.41214e-15
3.74999e-06
-7.60338e-16
3.74999e-06
-3.86892e-16
3.74999e-06
-1.80578e-16
3.74999e-06
-6.73416e-17
3.74999e-06
8.13291e-19
3.74999e-06
6.00017e-17
3.74999e-06
1.52892e-16
3.74999e-06
3.55874e-16
3.74999e-06
8.45256e-16
3.74999e-06
1.93729e-15
3.74999e-06
4.15982e-15
3.74999e-06
1.01381e-14
1.07142e-14
6.24999e-06
-3.59104e-14
6.24999e-06
-3.60275e-14
6.24999e-06
-2.29019e-14
6.24999e-06
-1.4182e-14
6.24999e-06
-8.59392e-15
6.24999e-06
-5.00852e-15
6.24999e-06
-2.84249e-15
6.24999e-06
-1.5548e-15
6.24999e-06
-8.06301e-16
6.24999e-06
-3.83676e-16
6.24999e-06
-1.48251e-16
6.24999e-06
-8.20488e-18
6.24999e-06
1.08039e-16
6.24999e-06
2.82819e-16
6.24999e-06
6.55017e-16
6.24999e-06
1.51208e-15
6.24999e-06
3.35749e-15
6.24999e-06
6.94486e-15
6.24999e-06
1.47105e-14
1.47215e-14
8.74999e-06
-4.51202e-14
8.74999e-06
-4.69946e-14
8.74999e-06
-3.19877e-14
8.74999e-06
-2.05252e-14
8.74999e-06
-1.27382e-14
8.74999e-06
-7.5713e-15
8.74999e-06
-4.35605e-15
8.74999e-06
-2.41109e-15
8.74999e-06
-1.26555e-15
8.74999e-06
-6.10861e-16
8.74999e-06
-2.44721e-16
8.74999e-06
-3.12802e-17
8.74999e-06
1.35479e-16
8.74999e-06
3.72442e-16
8.74999e-06
8.66366e-16
8.74999e-06
1.97316e-15
8.74999e-06
4.29637e-15
8.74999e-06
8.59114e-15
8.74999e-06
1.68013e-14
1.62947e-14
1.125e-05
-5.02997e-14
1.125e-05
-5.35591e-14
1.125e-05
-3.82682e-14
1.125e-05
-2.52889e-14
1.125e-05
-1.60279e-14
1.125e-05
-9.68646e-15
1.125e-05
-5.63842e-15
1.125e-05
-3.14858e-15
1.125e-05
-1.66532e-15
1.125e-05
-8.11517e-16
1.125e-05
-3.35659e-16
1.125e-05
-6.74761e-17
1.125e-05
1.23783e-16
1.125e-05
3.74709e-16
1.125e-05
8.91034e-16
1.125e-05
2.03994e-15
1.125e-05
4.42172e-15
1.125e-05
8.64939e-15
1.125e-05
1.61289e-14
1.52881e-14
1.375e-05
-5.11986e-14
1.375e-05
-5.52218e-14
1.375e-05
-4.0882e-14
1.375e-05
-2.76708e-14
1.375e-05
-1.78546e-14
1.375e-05
-1.09431e-14
1.375e-05
-6.43065e-15
1.375e-05
-3.61251e-15
1.375e-05
-1.91731e-15
1.375e-05
-9.38256e-16
1.375e-05
-3.9869e-16
1.375e-05
-1.109e-16
1.375e-05
6.51152e-17
1.375e-05
2.65478e-16
1.375e-05
6.81852e-16
1.375e-05
1.63484e-15
1.375e-05
3.63944e-15
1.375e-05
7.08852e-15
1.375e-05
1.29512e-14
1.19743e-14
1.625e-05
-4.79867e-14
1.625e-05
-5.20829e-14
1.625e-05
-3.95985e-14
1.625e-05
-2.73172e-14
1.625e-05
-1.78957e-14
1.625e-05
-1.10969e-14
1.625e-05
-6.56783e-15
1.625e-05
-3.69934e-15
1.625e-05
-1.96014e-15
1.625e-05
-9.56431e-16
1.625e-05
-4.15382e-16
1.625e-05
-1.52643e-16
1.625e-05
-3.69389e-17
1.625e-05
4.66173e-17
1.625e-05
2.44888e-16
1.625e-05
7.85443e-16
1.625e-05
2.03867e-15
1.625e-05
4.15948e-15
1.625e-05
7.78113e-15
6.81712e-15
1.875e-05
-4.11834e-14
1.875e-05
-4.46954e-14
1.875e-05
-3.46768e-14
1.875e-05
-2.42851e-14
1.875e-05
-1.61177e-14
1.875e-05
-1.00916e-14
1.875e-05
-5.99985e-15
1.875e-05
-3.37312e-15
1.875e-05
-1.77042e-15
1.875e-05
-8.51321e-16
1.875e-05
-3.75651e-16
1.875e-05
-1.83437e-16
1.875e-05
-1.69218e-16
1.875e-05
-2.57102e-16
1.875e-05
-3.68313e-16
1.875e-05
-4.00168e-16
1.875e-05
-1.61172e-16
1.875e-05
2.75672e-16
1.875e-05
1.28276e-15
4.16589e-16
2.125e-05
-3.15443e-14
2.125e-05
-3.39255e-14
2.125e-05
-2.6759e-14
2.125e-05
-1.89773e-14
2.125e-05
-1.27536e-14
2.125e-05
-8.05475e-15
2.125e-05
-4.79516e-15
2.125e-05
-2.67034e-15
2.125e-05
-1.36724e-15
2.125e-05
-6.31598e-16
2.125e-05
-2.80585e-16
2.125e-05
-1.96315e-16
2.125e-05
-3.12588e-16
2.125e-05
-6.04554e-16
2.125e-05
-1.07508e-15
2.125e-05
-1.76169e-15
2.125e-05
-2.66725e-15
2.125e-05
-4.06857e-15
2.125e-05
-5.83041e-15
-6.5789e-15
2.375e-05
-2.0008e-14
2.375e-05
-2.08705e-14
2.375e-05
-1.677e-14
2.375e-05
-1.20699e-14
2.375e-05
-8.25604e-15
2.375e-05
-5.2719e-15
2.375e-05
-3.12705e-15
2.375e-05
-1.69334e-15
2.375e-05
-8.09099e-16
2.375e-05
-3.28426e-16
2.375e-05
-1.42886e-16
2.375e-05
-1.88518e-16
2.375e-05
-4.46108e-16
2.375e-05
-9.4666e-16
2.375e-05
-1.77756e-15
2.375e-05
-3.11642e-15
2.375e-05
-5.15996e-15
2.375e-05
-8.36353e-15
2.375e-05
-1.28491e-14
-1.3512e-14
2.625e-05
-7.63051e-15
2.625e-05
-6.78195e-15
2.625e-05
-5.8294e-15
2.625e-05
-4.42759e-15
2.625e-05
-3.23328e-15
2.625e-05
-2.14227e-15
2.625e-05
-1.24526e-15
2.625e-05
-5.92832e-16
2.625e-05
-1.83817e-16
2.625e-05
9.88379e-18
2.625e-05
1.51348e-17
2.625e-05
-1.62173e-16
2.625e-05
-5.50825e-16
2.625e-05
-1.2348e-15
2.625e-05
-2.37851e-15
2.625e-05
-4.2855e-15
2.625e-05
-7.33287e-15
2.625e-05
-1.21309e-14
2.625e-05
-1.91132e-14
-1.97596e-14
2.875e-05
4.47367e-15
2.875e-05
7.0026e-15
2.875e-05
4.83891e-15
2.875e-05
2.98846e-15
2.875e-05
1.62976e-15
2.875e-05
8.80466e-16
2.875e-05
5.64642e-16
2.875e-05
4.58216e-16
2.875e-05
4.07351e-16
2.875e-05
3.26957e-16
2.875e-05
1.66024e-16
2.875e-05
-1.23581e-16
2.875e-05
-6.12647e-16
2.875e-05
-1.42815e-15
2.875e-05
-2.79498e-15
2.875e-05
-5.11633e-15
2.875e-05
-8.92401e-15
2.875e-05
-1.49604e-14
2.875e-05
-2.40437e-14
-2.4764e-14
3.125e-05
1.51879e-14
3.125e-05
1.91285e-14
3.125e-05
1.40042e-14
3.125e-05
9.22506e-15
3.125e-05
5.66344e-15
3.125e-05
3.3576e-15
3.125e-05
2.02964e-15
3.125e-05
1.29591e-15
3.125e-05
8.69173e-16
3.125e-05
5.69679e-16
3.125e-05
2.82974e-16
3.125e-05
-8.12797e-17
3.125e-05
-6.23983e-16
3.125e-05
-1.49938e-15
3.125e-05
-2.9693e-15
3.125e-05
-5.50029e-15
3.125e-05
-9.74093e-15
3.125e-05
-1.65389e-14
3.125e-05
-2.71693e-14
-2.80606e-14
3.375e-05
2.34688e-14
3.375e-05
2.8309e-14
3.375e-05
2.05397e-14
3.375e-05
1.34574e-14
3.375e-05
8.31306e-15
3.375e-05
4.94037e-15
3.375e-05
2.9394e-15
3.375e-05
1.79773e-15
3.375e-05
1.13199e-15
3.375e-05
6.99658e-16
3.375e-05
3.46065e-16
3.375e-05
-4.35642e-17
3.375e-05
-5.84291e-16
3.375e-05
-1.43852e-15
3.375e-05
-2.87696e-15
3.375e-05
-5.38612e-15
3.375e-05
-9.68106e-15
3.375e-05
-1.66751e-14
3.375e-05
-2.81523e-14
-2.93045e-14
3.625e-05
2.83972e-14
3.625e-05
3.34174e-14
3.625e-05
2.35681e-14
3.625e-05
1.51199e-14
3.625e-05
9.24451e-15
3.625e-05
5.43974e-15
3.625e-05
3.19175e-15
3.625e-05
1.90944e-15
3.625e-05
1.1678e-15
3.625e-05
7.02381e-16
3.625e-05
3.4731e-16
3.625e-05
-1.6114e-17
3.625e-05
-4.99821e-16
3.625e-05
-1.25474e-15
3.625e-05
-2.53144e-15
3.625e-05
-4.78946e-15
3.625e-05
-8.74804e-15
3.625e-05
-1.53267e-14
3.625e-05
-2.68149e-14
-2.82932e-14
3.875e-05
2.93232e-14
3.875e-05
3.36594e-14
3.875e-05
2.26337e-14
3.875e-05
1.40595e-14
3.875e-05
8.43607e-15
3.875e-05
4.8836e-15
3.875e-05
2.82213e-15
3.875e-05
1.66156e-15
3.875e-05
9.98518e-16
3.875e-05
5.91776e-16
3.875e-05
2.93062e-16
3.875e-05
-6.23184e-19
3.875e-05
-3.82949e-16
3.875e-05
-9.76392e-16
3.875e-05
-1.98568e-15
3.875e-05
-3.79796e-15
3.875e-05
-7.06662e-15
3.875e-05
-1.26287e-14
3.875e-05
-2.31898e-14
-2.501e-14
4.125e-05
2.59146e-14
4.125e-05
2.87495e-14
4.125e-05
1.79603e-14
4.125e-05
1.06696e-14
4.125e-05
6.25071e-15
4.125e-05
3.53841e-15
4.125e-05
2.01032e-15
4.125e-05
1.16776e-15
4.125e-05
6.93841e-16
4.125e-05
4.08217e-16
4.125e-05
2.03128e-16
4.125e-05
5.10368e-18
4.125e-05
-2.51265e-16
4.125e-05
-6.49336e-16
4.125e-05
-1.33015e-15
4.125e-05
-2.57269e-15
4.125e-05
-4.89337e-15
4.125e-05
-8.93576e-15
4.125e-05
-1.75752e-14
-1.96618e-14
4.375e-05
1.85448e-14
4.375e-05
1.9408e-14
4.375e-05
1.07242e-14
4.375e-05
6.01964e-15
4.375e-05
3.43319e-15
4.375e-05
1.88746e-15
4.375e-05
1.05098e-15
4.375e-05
6.03813e-16
4.375e-05
3.56506e-16
4.375e-05
2.0989e-16
4.375e-05
1.05918e-16
4.375e-05
5.33846e-18
4.375e-05
-1.26783e-16
4.375e-05
-3.33076e-16
4.375e-05
-6.87007e-16
4.375e-05
-1.34339e-15
4.375e-05
-2.62791e-15
4.375e-05
-4.87919e-15
4.375e-05
-1.06943e-14
-1.27965e-14
4.625e-05
8.19538e-15
4.625e-05
7.85773e-15
4.625e-05
3.50581e-15
4.625e-05
1.80322e-15
4.625e-05
1.00992e-15
4.625e-05
5.29599e-16
4.625e-05
2.86895e-16
4.625e-05
1.63478e-16
4.625e-05
9.67551e-17
4.625e-05
5.80191e-17
4.625e-05
3.08707e-17
4.625e-05
3.65886e-18
4.625e-05
-3.45718e-17
4.625e-05
-9.50974e-17
4.625e-05
-1.97581e-16
4.625e-05
-3.90617e-16
4.625e-05
-7.96463e-16
4.625e-05
-1.47322e-15
4.625e-05
-3.91115e-15
-5.29685e-15
4.875e-05
4.875e-05
4.875e-05
4.875e-05
4.875e-05
4.875e-05
4.875e-05
4.875e-05
4.875e-05
4.875e-05
4.875e-05
4.875e-05
4.875e-05
4.875e-05
4.875e-05
4.875e-05
4.875e-05
4.875e-05
4.875e-05
)
;

boundaryField
{
    top
    {
        type            calculated;
        value           uniform 0;
    }
    bottom
    {
        type            calculated;
        value           uniform 0;
    }
    inlet
    {
        type            calculated;
        value           nonuniform List<scalar> 
20
(
-1.25e-06
-3.74999e-06
-6.24999e-06
-8.74999e-06
-1.125e-05
-1.375e-05
-1.625e-05
-1.875e-05
-2.125e-05
-2.375e-05
-2.625e-05
-2.875e-05
-3.125e-05
-3.375e-05
-3.625e-05
-3.875e-05
-4.125e-05
-4.375e-05
-4.625e-05
-4.875e-05
)
;
    }
    outlet
    {
        type            calculated;
        value           nonuniform List<scalar> 
20
(
1.25e-06
3.74999e-06
6.24999e-06
8.74999e-06
1.125e-05
1.375e-05
1.625e-05
1.875e-05
2.125e-05
2.375e-05
2.625e-05
2.875e-05
3.125e-05
3.375e-05
3.625e-05
3.875e-05
4.125e-05
4.375e-05
4.625e-05
4.875e-05
)
;
    }
    frontAndBack
    {
        type            empty;
        value           nonuniform List<scalar> 0();
    }
}


// ************************************************************************* //
