/*--------------------------------*- C++ -*----------------------------------*\
  =========                 |
  \\      /  F ield         | OpenFOAM: The Open Source CFD Toolbox
   \\    /   O peration     | Website:  https://openfoam.org
    \\  /    A nd           | Version:  9
     \\/     M anipulation  |
\*---------------------------------------------------------------------------*/
FoamFile
{
    format      ascii;
    class       volVectorField;
    location    "3";
    object      U;
}
// * * * * * * * * * * * * * * * * * * * * * * * * * * * * * * * * * * * * * //

dimensions      [0 1 -1 0 0 0 0];

internalField   nonuniform List<vector> 
400
(
(0.025 -4.79937e-11 0)
(0.025 -3.83855e-11 0)
(0.025 -1.61254e-11 0)
(0.025 -8.59127e-12 0)
(0.025 -4.73938e-12 0)
(0.025 -2.51195e-12 0)
(0.025 -1.35483e-12 0)
(0.025 -6.78532e-13 0)
(0.025 -3.06224e-13 0)
(0.025 -1.30749e-13 0)
(0.025 -4.71806e-14 0)
(0.025 6.97823e-15 0)
(0.025 6.33294e-14 0)
(0.025 1.59049e-13 0)
(0.025 3.78646e-13 0)
(0.025 1.00387e-12 0)
(0.025 2.50243e-12 0)
(0.025 5.96524e-12 0)
(0.025 2.10578e-11 0)
(0.025 2.46926e-11 0)
(0.0749999 -1.6526e-10 0)
(0.0749999 -1.46916e-10 0)
(0.0749999 -7.6691e-11 0)
(0.0749999 -4.40197e-11 0)
(0.0749999 -2.54234e-11 0)
(0.0749999 -1.41353e-11 0)
(0.0749999 -7.77256e-12 0)
(0.0749999 -4.11186e-12 0)
(0.0749999 -2.03968e-12 0)
(0.0749999 -9.25892e-13 0)
(0.0749999 -3.29461e-13 0)
(0.0749999 3.12429e-14 0)
(0.0749999 3.56627e-13 0)
(0.0749999 8.86552e-13 0)
(0.0749999 2.07454e-12 0)
(0.0749999 5.07144e-12 0)
(0.0749999 1.19201e-11 0)
(0.0749999 2.65232e-11 0)
(0.0749999 7.20663e-11 0)
(0.0749999 7.91137e-11 0)
(0.125 -3.00558e-10 0)
(0.125 -2.91884e-10 0)
(0.125 -1.76297e-10 0)
(0.125 -1.06669e-10 0)
(0.125 -6.36273e-11 0)
(0.125 -3.65882e-11 0)
(0.125 -2.05759e-11 0)
(0.125 -1.11508e-11 0)
(0.125 -5.72186e-12 0)
(0.125 -2.6939e-12 0)
(0.125 -1.01823e-12 0)
(0.125 -8.89251e-15 0)
(0.125 8.59809e-13 0)
(0.125 2.2048e-12 0)
(0.125 5.1067e-12 0)
(0.125 1.19268e-11 0)
(0.125 2.68687e-11 0)
(0.125 5.66928e-11 0)
(0.125 1.27546e-10 0)
(0.125 1.3118e-10 0)
(0.175 -4.13554e-10 0)
(0.175 -4.2296e-10 0)
(0.175 -2.78899e-10 0)
(0.175 -1.75675e-10 0)
(0.175 -1.07617e-10 0)
(0.175 -6.32796e-11 0)
(0.175 -3.61275e-11 0)
(0.175 -1.9874e-11 0)
(0.175 -1.0373e-11 0)
(0.175 -4.97301e-12 0)
(0.175 -1.95236e-12 0)
(0.175 -1.63611e-13 0)
(0.175 1.29317e-12 0)
(0.175 3.43801e-12 0)
(0.175 7.95115e-12 0)
(0.175 1.81669e-11 0)
(0.175 3.98373e-11 0)
(0.175 8.08645e-11 0)
(0.175 1.63304e-10 0)
(0.175 1.61119e-10 0)
(0.225 -4.87659e-10 0)
(0.225 -5.13895e-10 0)
(0.225 -3.5932e-10 0)
(0.225 -2.3406e-10 0)
(0.225 -1.46763e-10 0)
(0.225 -8.79469e-11 0)
(0.225 -5.08882e-11 0)
(0.225 -2.82999e-11 0)
(0.225 -1.49237e-11 0)
(0.225 -7.24566e-12 0)
(0.225 -2.94879e-12 0)
(0.225 -4.70122e-13 0)
(0.225 1.40574e-12 0)
(0.225 3.9904e-12 0)
(0.225 9.32331e-12 0)
(0.225 2.116e-11 0)
(0.225 4.57414e-11 0)
(0.225 9.01471e-11 0)
(0.225 1.70887e-10 0)
(0.225 1.64105e-10 0)
(0.275 -5.181e-10 0)
(0.275 -5.55605e-10 0)
(0.275 -4.05167e-10 0)
(0.275 -2.71248e-10 0)
(0.275 -1.73529e-10 0)
(0.275 -1.05649e-10 0)
(0.275 -6.18124e-11 0)
(0.275 -3.46437e-11 0)
(0.275 -1.8377e-11 0)
(0.275 -8.98911e-12 0)
(0.275 -3.77215e-12 0)
(0.275 -8.88859e-13 0)
(0.275 1.05668e-12 0)
(0.275 3.47955e-12 0)
(0.275 8.44533e-12 0)
(0.275 1.95186e-11 0)
(0.275 4.24407e-11 0)
(0.275 8.23484e-11 0)
(0.275 1.50757e-10 0)
(0.275 1.41541e-10 0)
(0.325 -5.05633e-10 0)
(0.325 -5.47451e-10 0)
(0.325 -4.11762e-10 0)
(0.325 -2.81757e-10 0)
(0.325 -1.83323e-10 0)
(0.325 -1.13091e-10 0)
(0.325 -6.6742e-11 0)
(0.325 -3.75818e-11 0)
(0.325 -1.99631e-11 0)
(0.325 -9.77917e-12 0)
(0.325 -4.20924e-12 0)
(0.325 -1.34029e-12 0)
(0.325 2.28314e-13 0)
(0.325 1.79993e-12 0)
(0.325 5.13327e-12 0)
(0.325 1.30623e-11 0)
(0.325 3.01192e-11 0)
(0.325 5.9053e-11 0)
(0.325 1.07617e-10 0)
(0.325 9.78345e-11 0)
(0.375 -4.53951e-10 0)
(0.375 -4.93135e-10 0)
(0.375 -3.79633e-10 0)
(0.375 -2.64266e-10 0)
(0.375 -1.74402e-10 0)
(0.375 -1.08756e-10 0)
(0.375 -6.45746e-11 0)
(0.375 -3.6391e-11 0)
(0.375 -1.92383e-11 0)
(0.375 -9.35457e-12 0)
(0.375 -4.10713e-12 0)
(0.375 -1.7253e-12 0)
(0.375 -9.86771e-13 0)
(0.375 -9.00136e-13 0)
(0.375 -2.92354e-13 0)
(0.375 2.54366e-12 0)
(0.375 1.047e-11 0)
(0.375 2.38656e-11 0)
(0.375 4.76376e-11 0)
(0.375 3.84798e-11 0)
(0.425 -3.69602e-10 0)
(0.425 -3.99987e-10 0)
(0.425 -3.13509e-10 0)
(0.425 -2.21232e-10 0)
(0.425 -1.47841e-10 0)
(0.425 -9.30316e-11 0)
(0.425 -5.54111e-11 0)
(0.425 -3.10737e-11 0)
(0.425 -1.61773e-11 0)
(0.425 -7.68062e-12 0)
(0.425 -3.41593e-12 0)
(0.425 -1.95631e-12 0)
(0.425 -2.41645e-12 0)
(0.425 -4.27118e-12 0)
(0.425 -7.12112e-12 0)
(0.425 -1.06227e-11 0)
(0.425 -1.38202e-11 0)
(0.425 -1.85079e-11 0)
(0.425 -2.21192e-11 0)
(0.425 -3.01374e-11 0)
(0.475 -2.612e-10 0)
(0.475 -2.78013e-10 0)
(0.475 -2.21451e-10 0)
(0.475 -1.58235e-10 0)
(0.475 -1.07201e-10 0)
(0.475 -6.80687e-11 0)
(0.475 -4.05109e-11 0)
(0.475 -2.23529e-11 0)
(0.475 -1.11837e-11 0)
(0.475 -4.96389e-12 0)
(0.475 -2.20638e-12 0)
(0.475 -1.98128e-12 0)
(0.475 -3.85014e-12 0)
(0.475 -7.84082e-12 0)
(0.475 -1.44105e-11 0)
(0.475 -2.46521e-11 0)
(0.475 -3.95848e-11 0)
(0.475 -6.29129e-11 0)
(0.475 -9.44214e-11 0)
(0.475 -1.01388e-10 0)
(0.525 -1.38885e-10 0)
(0.525 -1.39148e-10 0)
(0.525 -1.13902e-10 0)
(0.525 -8.32003e-11 0)
(0.525 -5.79659e-11 0)
(0.525 -3.74203e-11 0)
(0.525 -2.20755e-11 0)
(0.525 -1.15485e-11 0)
(0.525 -5.02188e-12 0)
(0.525 -1.62006e-12 0)
(0.525 -6.6183e-13 0)
(0.525 -1.79732e-12 0)
(0.525 -5.08026e-12 0)
(0.525 -1.11011e-11 0)
(0.525 -2.11485e-11 0)
(0.525 -3.7677e-11 0)
(0.525 -6.36058e-11 0)
(0.525 -1.04307e-10 0)
(0.525 -1.62321e-10 0)
(0.525 -1.68772e-10 0)
(0.575 -1.36556e-11 0)
(0.575 3.48441e-12 0)
(0.575 -2.81696e-12 0)
(0.575 -5.5009e-12 0)
(0.575 -6.81428e-12 0)
(0.575 -5.51232e-12 0)
(0.575 -2.89408e-12 0)
(0.575 -3.52105e-13 0)
(0.575 1.31759e-12 0)
(0.575 1.80123e-12 0)
(0.575 9.55518e-13 0)
(0.575 -1.45037e-12 0)
(0.575 -5.93645e-12 0)
(0.575 -1.35891e-11 0)
(0.575 -2.64043e-11 0)
(0.575 -4.79911e-11 0)
(0.575 -8.29728e-11 0)
(0.575 -1.38165e-10 0)
(0.575 -2.19547e-10 0)
(0.575 -2.26312e-10 0)
(0.625 1.03154e-10 0)
(0.625 1.36221e-10 0)
(0.625 9.92753e-11 0)
(0.625 6.50124e-11 0)
(0.625 3.92404e-11 0)
(0.625 2.30097e-11 0)
(0.625 1.41142e-11 0)
(0.625 9.47001e-12 0)
(0.625 6.80182e-12 0)
(0.625 4.72283e-12 0)
(0.625 2.35844e-12 0)
(0.625 -1.02081e-12 0)
(0.625 -6.30824e-12 0)
(0.625 -1.49531e-11 0)
(0.625 -2.94526e-11 0)
(0.625 -5.42513e-11 0)
(0.625 -9.53591e-11 0)
(0.625 -1.60803e-10 0)
(0.625 -2.60777e-10 0)
(0.625 -2.68823e-10 0)
(0.675 2.00598e-10 0)
(0.675 2.45643e-10 0)
(0.675 1.8028e-10 0)
(0.675 1.19144e-10 0)
(0.675 7.38187e-11 0)
(0.675 4.40238e-11 0)
(0.675 2.6409e-11 0)
(0.675 1.64085e-11 0)
(0.675 1.05596e-11 0)
(0.675 6.66e-12 0)
(0.675 3.29826e-12 0)
(0.675 -5.99696e-13 0)
(0.675 -6.15557e-12 0)
(0.675 -1.5001e-11 0)
(0.675 -2.98686e-11 0)
(0.675 -5.56327e-11 0)
(0.675 -9.92483e-11 0)
(0.675 -1.69643e-10 0)
(0.675 -2.81906e-10 0)
(0.675 -2.922e-10 0)
(0.725 2.68641e-10 0)
(0.725 3.19394e-10 0)
(0.725 2.29823e-10 0)
(0.725 1.49599e-10 0)
(0.725 9.22303e-11 0)
(0.725 5.46767e-11 0)
(0.725 3.2329e-11 0)
(0.725 1.95215e-11 0)
(0.725 1.20695e-11 0)
(0.725 7.3295e-12 0)
(0.725 3.62507e-12 0)
(0.725 -2.6236e-13 0)
(0.725 -5.50895e-12 0)
(0.725 -1.37273e-11 0)
(0.725 -2.75916e-11 0)
(0.725 -5.19429e-11 0)
(0.725 -9.41131e-11 0)
(0.725 -1.63458e-10 0)
(0.725 -2.80283e-10 0)
(0.725 -2.93645e-10 0)
(0.775 2.99198e-10 0)
(0.775 3.47383e-10 0)
(0.775 2.40642e-10 0)
(0.775 1.52393e-10 0)
(0.775 9.24633e-11 0)
(0.775 5.40459e-11 0)
(0.775 3.14829e-11 0)
(0.775 1.86645e-11 0)
(0.775 1.12891e-11 0)
(0.775 6.72264e-12 0)
(0.775 3.32743e-12 0)
(0.775 -4.7972e-14 0)
(0.775 -4.46355e-12 0)
(0.775 -1.13214e-11 0)
(0.775 -2.29527e-11 0)
(0.775 -4.36864e-11 0)
(0.775 -8.0553e-11 0)
(0.775 -1.4259e-10 0)
(0.775 -2.55008e-10 0)
(0.775 -2.71955e-10 0)
(0.825 2.8613e-10 0)
(0.825 3.22729e-10 0)
(0.825 2.10522e-10 0)
(0.825 1.28153e-10 0)
(0.825 7.60047e-11 0)
(0.825 4.35309e-11 0)
(0.825 2.49364e-11 0)
(0.825 1.45649e-11 0)
(0.825 8.68568e-12 0)
(0.825 5.11809e-12 0)
(0.825 2.54108e-12 0)
(0.825 4.93199e-14 0)
(0.825 -3.16679e-12 0)
(0.825 -8.15106e-12 0)
(0.825 -1.66598e-11 0)
(0.825 -3.20771e-11 0)
(0.825 -6.03771e-11 0)
(0.825 -1.09204e-10 0)
(0.825 -2.07117e-10 0)
(0.825 -2.27527e-10 0)
(0.875 2.28516e-10 0)
(0.875 2.46514e-10 0)
(0.875 1.45892e-10 0)
(0.875 8.41783e-11 0)
(0.875 4.85648e-11 0)
(0.875 2.70799e-11 0)
(0.875 1.52159e-11 0)
(0.875 8.77477e-12 0)
(0.875 5.18483e-12 0)
(0.875 3.04217e-12 0)
(0.875 1.52041e-12 0)
(0.875 5.94724e-14 0)
(0.875 -1.83786e-12 0)
(0.875 -4.78885e-12 0)
(0.875 -9.83988e-12 0)
(0.875 -1.91456e-11 0)
(0.875 -3.6958e-11 0)
(0.875 -6.82624e-11 0)
(0.875 -1.4144e-10 0)
(0.875 -1.63498e-10 0)
(0.925 1.35663e-10 0)
(0.925 1.36598e-10 0)
(0.925 6.85697e-11 0)
(0.925 3.63884e-11 0)
(0.925 2.0318e-11 0)
(0.925 1.08674e-11 0)
(0.925 5.94025e-12 0)
(0.925 3.3855e-12 0)
(0.925 1.99603e-12 0)
(0.925 1.18332e-12 0)
(0.925 6.10381e-13 0)
(0.925 4.72037e-14 0)
(0.925 -7.13303e-13 0)
(0.925 -1.91012e-12 0)
(0.925 -3.9644e-12 0)
(0.925 -7.82471e-12 0)
(0.925 -1.56616e-11 0)
(0.925 -2.93718e-11 0)
(0.925 -7.0647e-11 0)
(0.925 -8.91442e-11 0)
(0.975 4.19061e-11 0)
(0.975 3.91707e-11 0)
(0.975 1.56202e-11 0)
(0.975 7.25536e-12 0)
(0.975 3.89408e-12 0)
(0.975 1.9393e-12 0)
(0.975 1.0164e-12 0)
(0.975 5.73328e-13 0)
(0.975 3.38364e-13 0)
(0.975 2.02606e-13 0)
(0.975 1.07337e-13 0)
(0.975 7.0329e-15 0)
(0.975 -1.45272e-13 0)
(0.975 -3.90247e-13 0)
(0.975 -7.90138e-13 0)
(0.975 -1.55269e-12 0)
(0.975 -3.27035e-12 0)
(0.975 -6.14173e-12 0)
(0.975 -1.83891e-11 0)
(0.975 -2.57158e-11 0)
)
;

boundaryField
{
    top
    {
        type            fixedValue;
        value           uniform (1 0 0);
    }
    bottom
    {
        type            fixedValue;
        value           uniform (0 0 0);
    }
    inlet
    {
        type            zeroGradient;
    }
    outlet
    {
        type            zeroGradient;
    }
    frontAndBack
    {
        type            empty;
    }
}


// ************************************************************************* //
