/*--------------------------------*- C++ -*----------------------------------*\
  =========                 |
  \\      /  F ield         | OpenFOAM: The Open Source CFD Toolbox
   \\    /   O peration     | Website:  https://openfoam.org
    \\  /    A nd           | Version:  9
     \\/     M anipulation  |
\*---------------------------------------------------------------------------*/
FoamFile
{
    format      ascii;
    class       volScalarField;
    location    "1.1";
    object      p;
}
// * * * * * * * * * * * * * * * * * * * * * * * * * * * * * * * * * * * * * //

dimensions      [0 2 -2 0 0 0 0];

internalField   nonuniform List<scalar> 
400
(
5.17508e-07
8.57801e-07
8.29152e-07
7.88344e-07
7.21552e-07
6.42529e-07
5.60254e-07
4.76604e-07
3.92966e-07
3.10024e-07
2.27401e-07
1.4458e-07
6.13825e-08
-2.21582e-08
-1.05966e-07
-1.90216e-07
-2.72746e-07
-3.47602e-07
-4.42208e-07
-2.79345e-07
4.90839e-07
8.17315e-07
7.8614e-07
7.6263e-07
7.06024e-07
6.33245e-07
5.54973e-07
4.73751e-07
3.91539e-07
3.0942e-07
2.27267e-07
1.44744e-07
6.18148e-08
-2.13182e-08
-1.04266e-07
-1.8676e-07
-2.65599e-07
-3.31382e-07
-4.31606e-07
-2.72151e-07
4.96321e-07
8.21011e-07
7.6219e-07
7.46166e-07
6.95028e-07
6.26051e-07
5.50623e-07
4.71265e-07
3.90198e-07
3.08754e-07
2.2701e-07
1.44766e-07
6.20883e-08
-2.0712e-08
-1.03056e-07
-1.84566e-07
-2.61926e-07
-3.23496e-07
-4.45415e-07
-2.8213e-07
5.1543e-07
8.56922e-07
7.57242e-07
7.39299e-07
6.89158e-07
6.21446e-07
5.47517e-07
4.69305e-07
3.89001e-07
3.08042e-07
2.26622e-07
1.44621e-07
6.21482e-08
-2.04464e-08
-1.02534e-07
-1.83922e-07
-2.61844e-07
-3.23981e-07
-4.73424e-07
-2.97586e-07
5.36364e-07
9.06627e-07
7.62128e-07
7.37849e-07
6.86373e-07
6.18461e-07
5.45192e-07
4.67651e-07
3.87859e-07
3.07273e-07
2.26134e-07
1.44348e-07
6.20292e-08
-2.04687e-08
-1.02555e-07
-1.84342e-07
-2.63912e-07
-3.28498e-07
-5.04758e-07
-3.12264e-07
5.55709e-07
9.6033e-07
7.71899e-07
7.39337e-07
6.85438e-07
6.16453e-07
5.43312e-07
4.66152e-07
3.86732e-07
3.06456e-07
2.25571e-07
1.43975e-07
6.17682e-08
-2.07111e-08
-1.02948e-07
-1.85385e-07
-2.67005e-07
-3.34425e-07
-5.33486e-07
-3.24188e-07
5.72796e-07
1.0126e-06
7.83718e-07
7.42245e-07
6.8549e-07
6.14988e-07
5.41655e-07
4.64717e-07
3.85597e-07
3.05603e-07
2.24955e-07
1.43531e-07
6.14066e-08
-2.10961e-08
-1.03544e-07
-1.86662e-07
-2.70306e-07
-3.40174e-07
-5.5659e-07
-3.33013e-07
5.86946e-07
1.05899e-06
7.95291e-07
7.45241e-07
6.85753e-07
6.13669e-07
5.40032e-07
4.63265e-07
3.84436e-07
3.04724e-07
2.24311e-07
1.43052e-07
6.10002e-08
-2.15263e-08
-1.04153e-07
-1.87799e-07
-2.73077e-07
-3.4455e-07
-5.71975e-07
-3.38407e-07
5.97733e-07
1.09604e-06
8.0476e-07
7.47289e-07
6.85616e-07
6.12199e-07
5.38312e-07
4.61751e-07
3.83245e-07
3.03835e-07
2.23666e-07
1.42578e-07
6.06126e-08
-2.18962e-08
-1.04593e-07
-1.88463e-07
-2.74722e-07
-3.46679e-07
-5.78453e-07
-3.40283e-07
6.04835e-07
1.1212e-06
8.1085e-07
7.47732e-07
6.8472e-07
6.10432e-07
5.36459e-07
4.60181e-07
3.82046e-07
3.02964e-07
2.23054e-07
1.42152e-07
6.03048e-08
-2.21109e-08
-1.04709e-07
-1.88408e-07
-2.74829e-07
-3.46056e-07
-5.75586e-07
-3.38667e-07
6.0802e-07
1.13284e-06
8.1285e-07
7.46312e-07
6.82969e-07
6.08386e-07
5.34533e-07
4.5862e-07
3.80891e-07
3.02153e-07
2.22507e-07
1.4181e-07
6.01242e-08
-2.21029e-08
-1.04405e-07
-1.875e-07
-2.73205e-07
-3.42522e-07
-5.63594e-07
-3.33713e-07
6.07078e-07
1.13015e-06
8.10609e-07
7.43153e-07
6.80512e-07
6.06225e-07
5.32681e-07
4.57178e-07
3.79857e-07
3.01449e-07
2.22061e-07
1.41577e-07
6.00971e-08
-2.18447e-08
-1.03656e-07
-1.85739e-07
-2.69879e-07
-3.36243e-07
-5.43252e-07
-3.25654e-07
6.01821e-07
1.11321e-06
8.04551e-07
7.38738e-07
6.7772e-07
6.0423e-07
5.31108e-07
4.55997e-07
3.79033e-07
3.00906e-07
2.21742e-07
1.41467e-07
6.02232e-08
-2.13559e-08
-1.02519e-07
-1.83261e-07
-2.65105e-07
-3.27694e-07
-5.15841e-07
-3.14808e-07
5.92183e-07
1.08314e-06
7.9571e-07
7.33901e-07
6.75141e-07
6.02763e-07
5.30052e-07
4.55226e-07
3.78506e-07
3.00571e-07
2.21571e-07
1.41477e-07
6.04751e-08
-2.07041e-08
-1.01132e-07
-1.80337e-07
-2.59364e-07
-3.17652e-07
-4.83145e-07
-3.01612e-07
5.78193e-07
1.04222e-06
7.85796e-07
7.29758e-07
6.73452e-07
6.02208e-07
5.29734e-07
4.54991e-07
3.78348e-07
3.00478e-07
2.21555e-07
1.41589e-07
6.08005e-08
-1.9999e-08
-9.97068e-08
-1.77363e-07
-2.5334e-07
-3.07189e-07
-4.47436e-07
-2.86634e-07
5.60243e-07
9.94139e-07
7.77041e-07
7.27618e-07
6.7334e-07
6.02911e-07
5.30317e-07
4.55371e-07
3.78591e-07
3.00636e-07
2.21687e-07
1.41773e-07
6.11291e-08
-1.93784e-08
-9.85004e-08
-1.74815e-07
-2.47874e-07
-2.97602e-07
-4.11482e-07
-2.70615e-07
5.38637e-07
9.43975e-07
7.72342e-07
7.28789e-07
6.75438e-07
6.05103e-07
5.31874e-07
4.56372e-07
3.79224e-07
3.01029e-07
2.21944e-07
1.41986e-07
6.1381e-08
-1.89932e-08
-9.77878e-08
-1.73212e-07
-2.4392e-07
-2.90462e-07
-3.78534e-07
-2.54348e-07
5.16531e-07
9.01662e-07
7.76575e-07
7.35352e-07
6.80563e-07
6.0909e-07
5.34478e-07
4.58001e-07
3.80233e-07
3.0164e-07
2.22302e-07
1.42187e-07
6.14656e-08
-1.90201e-08
-9.78936e-08
-1.73183e-07
-2.42773e-07
-2.88284e-07
-3.53982e-07
-2.40005e-07
5.04029e-07
8.8579e-07
7.98769e-07
7.5074e-07
6.90155e-07
6.15388e-07
5.38311e-07
4.60314e-07
3.81648e-07
3.02491e-07
2.22774e-07
1.42361e-07
6.13248e-08
-1.96033e-08
-9.91446e-08
-1.7547e-07
-2.46148e-07
-2.95094e-07
-3.47334e-07
-2.34315e-07
5.1971e-07
9.12694e-07
8.39017e-07
7.74415e-07
7.03527e-07
6.2337e-07
5.42944e-07
4.63049e-07
3.83308e-07
3.03494e-07
2.23319e-07
1.42504e-07
6.0997e-08
-2.06368e-08
-1.01353e-07
-1.79764e-07
-2.53872e-07
-3.10757e-07
-3.64413e-07
-2.47344e-07
)
;

boundaryField
{
    top
    {
        type            zeroGradient;
    }
    bottom
    {
        type            zeroGradient;
    }
    inlet
    {
        type            fixedValue;
        value           uniform 0;
    }
    outlet
    {
        type            fixedValue;
        value           uniform 0;
    }
    frontAndBack
    {
        type            empty;
    }
}


// ************************************************************************* //
