/*--------------------------------*- C++ -*----------------------------------*\
  =========                 |
  \\      /  F ield         | OpenFOAM: The Open Source CFD Toolbox
   \\    /   O peration     | Website:  https://openfoam.org
    \\  /    A nd           | Version:  9
     \\/     M anipulation  |
\*---------------------------------------------------------------------------*/
FoamFile
{
    format      ascii;
    class       surfaceScalarField;
    location    "1.1";
    object      phi;
}
// * * * * * * * * * * * * * * * * * * * * * * * * * * * * * * * * * * * * * //

dimensions      [0 3 -1 0 0 0 0];

internalField   nonuniform List<scalar> 
760
(
1.24945e-06
-3.16766e-12
1.24945e-06
-2.63746e-12
1.24945e-06
-1.25495e-12
1.24945e-06
-7.12084e-13
1.24945e-06
-4.07062e-13
1.24945e-06
-2.21716e-13
1.24945e-06
-1.19303e-13
1.24945e-06
-6.00984e-14
1.24945e-06
-2.67883e-14
1.24945e-06
-9.50187e-15
1.24945e-06
-5.53843e-16
1.24945e-06
4.80197e-15
1.24945e-06
9.60164e-15
1.24945e-06
1.74746e-14
1.24945e-06
3.54689e-14
1.24945e-06
8.3625e-14
1.24945e-06
1.94622e-13
1.24945e-06
4.31653e-13
1.24945e-06
1.35446e-12
1.5642e-12
3.74836e-06
-7.62371e-12
3.74836e-06
-7.14642e-12
3.74837e-06
-4.08107e-12
3.74837e-06
-2.42325e-12
3.74837e-06
-1.4235e-12
3.74837e-06
-8.02412e-13
3.74837e-06
-4.39873e-13
3.74837e-06
-2.27846e-13
3.74837e-06
-1.06342e-13
3.74837e-06
-3.93832e-14
3.74837e-06
-3.01937e-15
3.74837e-06
1.83006e-14
3.74837e-06
3.63286e-14
3.74837e-06
6.49664e-14
3.74837e-06
1.29023e-13
3.74837e-06
2.85641e-13
3.74837e-06
6.37272e-13
3.74837e-06
1.35504e-12
3.74837e-06
3.28934e-12
3.4768e-12
6.24732e-06
-1.15917e-11
6.24732e-06
-1.16319e-11
6.24732e-06
-7.38437e-12
6.24733e-06
-4.5608e-12
6.24733e-06
-2.74968e-12
6.24733e-06
-1.5863e-12
6.24733e-06
-8.824e-13
6.24733e-06
-4.63416e-13
6.24733e-06
-2.19859e-13
6.24733e-06
-8.27824e-14
6.24733e-06
-7.32126e-15
6.24733e-06
3.63194e-14
6.24733e-06
7.14598e-14
6.24733e-06
1.24935e-13
6.24733e-06
2.41853e-13
6.24733e-06
5.15399e-13
6.24733e-06
1.1087e-12
6.24733e-06
2.26614e-12
6.24732e-06
4.77708e-12
4.78026e-12
8.74634e-06
-1.45589e-11
8.74634e-06
-1.51652e-11
8.74635e-06
-1.03068e-11
8.74635e-06
-6.59362e-12
8.74635e-06
-4.06865e-12
8.74635e-06
-2.39132e-12
8.74635e-06
-1.346e-12
8.74635e-06
-7.12925e-13
8.74635e-06
-3.40109e-13
8.74635e-06
-1.2787e-13
8.74635e-06
-1.07314e-14
8.74635e-06
5.54212e-14
8.74635e-06
1.05163e-13
8.74635e-06
1.76624e-13
8.74635e-06
3.30505e-13
8.74635e-06
6.82216e-13
8.74635e-06
1.42735e-12
8.74635e-06
2.8109e-12
8.74635e-06
5.46287e-12
5.29633e-12
1.12455e-05
-1.62219e-11
1.12455e-05
-1.72732e-11
1.12455e-05
-1.23199e-11
1.12455e-05
-8.113e-12
1.12455e-05
-5.10829e-12
1.12455e-05
-3.04838e-12
1.12455e-05
-1.73152e-12
1.12455e-05
-9.20651e-13
1.12455e-05
-4.37776e-13
1.12455e-05
-1.61087e-13
1.12455e-05
-9.17573e-15
1.12455e-05
7.32902e-14
1.12455e-05
1.29001e-13
1.12455e-05
2.02589e-13
1.12455e-05
3.6099e-13
1.12455e-05
7.23339e-13
1.12455e-05
1.48423e-12
1.12455e-05
2.84273e-12
1.12455e-05
5.25476e-12
4.97736e-12
1.37447e-05
-1.65007e-11
1.37447e-05
-1.77958e-11
1.37447e-05
-1.31467e-11
1.37447e-05
-8.86163e-12
1.37447e-05
-5.67431e-12
1.37447e-05
-3.42739e-12
1.37447e-05
-1.95822e-12
1.37447e-05
-1.03972e-12
1.37447e-05
-4.87546e-13
1.37447e-05
-1.7035e-13
1.37447e-05
1.43128e-15
1.37447e-05
8.8838e-14
1.37447e-05
1.37658e-13
1.37447e-05
1.92488e-13
1.37447e-05
3.15803e-13
1.37447e-05
6.11726e-13
1.37447e-05
1.2473e-12
1.37447e-05
2.35036e-12
1.37447e-05
4.23544e-12
3.91123e-12
1.6244e-05
-1.54512e-11
1.6244e-05
-1.67667e-11
1.6244e-05
-1.27146e-11
1.6244e-05
-8.72731e-12
1.6244e-05
-5.66498e-12
1.6244e-05
-3.45221e-12
1.6244e-05
-1.97589e-12
1.6244e-05
-1.03989e-12
1.6244e-05
-4.72887e-13
1.6244e-05
-1.47749e-13
1.6244e-05
2.38521e-14
1.6244e-05
1.01912e-13
1.6244e-05
1.29475e-13
1.6244e-05
1.44364e-13
1.6244e-05
1.94633e-13
1.6244e-05
3.54355e-13
1.6244e-05
7.43803e-13
1.6244e-05
1.41383e-12
1.6244e-05
2.57025e-12
2.24763e-12
1.87436e-05
-1.3242e-11
1.87436e-05
-1.43659e-11
1.87435e-05
-1.1109e-11
1.87435e-05
-7.73056e-12
1.87435e-05
-5.07184e-12
1.87435e-05
-3.10731e-12
1.87435e-05
-1.77116e-12
1.87435e-05
-9.12505e-13
1.87435e-05
-3.89237e-13
1.87435e-05
-9.14973e-14
1.87435e-05
5.84576e-14
1.87435e-05
1.12763e-13
1.87435e-05
1.0616e-13
1.87435e-05
6.39127e-14
1.87435e-05
1.21058e-14
1.87435e-05
-1.5564e-14
1.87435e-05
4.33228e-14
1.87435e-05
1.65859e-13
1.87436e-05
4.73464e-13
1.80442e-13
2.12432e-05
-1.01181e-11
2.12432e-05
-1.08746e-11
2.12432e-05
-8.5387e-12
2.12432e-05
-6.00326e-12
2.12432e-05
-3.97212e-12
2.12432e-05
-2.436e-12
2.12432e-05
-1.36837e-12
2.12432e-05
-6.71652e-13
2.12432e-05
-2.4509e-13
2.12432e-05
-6.71665e-15
2.12432e-05
1.02643e-13
2.12432e-05
1.21499e-13
2.12432e-05
7.18958e-14
2.12432e-05
-3.73874e-14
2.12432e-05
-2.06656e-13
2.12432e-05
-4.47541e-13
2.12432e-05
-7.60515e-13
2.12432e-05
-1.23441e-12
2.12432e-05
-1.82453e-12
-2.08078e-12
2.3743e-05
-6.3836e-12
2.3743e-05
-6.64822e-12
2.3743e-05
-5.30386e-12
2.3743e-05
-3.76505e-12
2.3743e-05
-2.51339e-12
2.3743e-05
-1.53194e-12
2.3743e-05
-8.24939e-13
2.3743e-05
-3.51823e-13
2.3743e-05
-6.07754e-14
2.3743e-05
9.51137e-14
2.3743e-05
1.50925e-13
2.3743e-05
1.27692e-13
2.3743e-05
3.22221e-14
2.3743e-05
-1.44796e-13
2.3743e-05
-4.31001e-13
2.3743e-05
-8.83341e-13
2.3743e-05
-1.565e-12
2.3743e-05
-2.62257e-12
2.3743e-05
-4.09453e-12
-4.32349e-12
2.6243e-05
-2.38025e-12
2.6243e-05
-2.09188e-12
2.6243e-05
-1.76685e-12
2.6243e-05
-1.29606e-12
2.6243e-05
-8.92765e-13
2.6243e-05
-5.24603e-13
2.6243e-05
-2.21981e-13
2.6243e-05
-2.10399e-15
2.6243e-05
1.34969e-13
2.6243e-05
1.98036e-13
2.6243e-05
1.95757e-13
2.6243e-05
1.30312e-13
2.6243e-05
-7.06927e-15
2.6243e-05
-2.42899e-13
2.6243e-05
-6.29763e-13
2.6243e-05
-1.26535e-12
2.6243e-05
-2.27121e-12
2.6243e-05
-3.84402e-12
2.6243e-05
-6.12309e-12
-6.34616e-12
2.87432e-05
1.53145e-12
2.87432e-05
2.36183e-12
2.87432e-05
1.67661e-12
2.87432e-05
1.09321e-12
2.87432e-05
6.68675e-13
2.87432e-05
4.39847e-13
2.87432e-05
3.48802e-13
2.87432e-05
3.22297e-13
2.87432e-05
3.10157e-13
2.87432e-05
2.84574e-13
2.87432e-05
2.28971e-13
2.87432e-05
1.27989e-13
2.87432e-05
-4.08197e-14
2.87432e-05
-3.17962e-13
2.87432e-05
-7.75648e-13
2.87432e-05
-1.54382e-12
2.87432e-05
-2.79406e-12
2.87432e-05
-4.76582e-12
2.87432e-05
-7.72277e-12
-7.96828e-12
3.12436e-05
4.99053e-12
3.12436e-05
6.27513e-12
3.12436e-05
4.62909e-12
3.12435e-05
3.09536e-12
3.12435e-05
1.95556e-12
3.12435e-05
1.22095e-12
3.12435e-05
8.00712e-13
3.12435e-05
5.70076e-13
3.12435e-05
4.35743e-13
3.12435e-05
3.39291e-13
3.12435e-05
2.43586e-13
3.12435e-05
1.19546e-13
3.12435e-05
-6.51123e-14
3.12435e-05
-3.59832e-13
3.12435e-05
-8.48827e-13
3.12435e-05
-1.68259e-12
3.12435e-05
-3.07049e-12
3.12435e-05
-5.28602e-12
3.12435e-05
-8.74071e-12
-9.03932e-12
3.37441e-05
7.65987e-12
3.3744e-05
9.23243e-12
3.3744e-05
6.72721e-12
3.3744e-05
4.4451e-12
3.3744e-05
2.7903e-12
3.3744e-05
1.70801e-12
3.3744e-05
1.06806e-12
3.3744e-05
7.04071e-13
3.3744e-05
4.91723e-13
3.3744e-05
3.52288e-13
3.3744e-05
2.35605e-13
3.3744e-05
1.04624e-13
3.3744e-05
-7.76204e-14
3.3744e-05
-3.63313e-13
3.3744e-05
-8.39641e-13
3.3744e-05
-1.6636e-12
3.3744e-05
-3.06608e-12
3.3744e-05
-5.34188e-12
3.3744e-05
-9.06709e-12
-9.44744e-12
3.62447e-05
9.24271e-12
3.62447e-05
1.08702e-11
3.62447e-05
7.68858e-12
3.62447e-05
4.96134e-12
3.62447e-05
3.06709e-12
3.62447e-05
1.84247e-12
3.62447e-05
1.12057e-12
3.62447e-05
7.09687e-13
3.62447e-05
4.72043e-13
3.62447e-05
3.21868e-13
3.62447e-05
2.05362e-13
3.62447e-05
8.4168e-14
3.62447e-05
-7.77667e-14
3.62447e-05
-3.29e-13
3.62447e-05
-7.50316e-13
3.62447e-05
-1.49005e-12
3.62447e-05
-2.78049e-12
3.62447e-05
-4.9185e-12
3.62447e-05
-8.64371e-12
-9.12667e-12
3.87455e-05
9.52954e-12
3.87455e-05
1.09327e-11
3.87455e-05
7.36742e-12
3.87455e-05
4.59669e-12
3.87455e-05
2.78135e-12
3.87455e-05
1.63608e-12
3.87455e-05
9.72668e-13
3.87455e-05
5.99855e-13
3.87455e-05
3.86929e-13
3.87455e-05
2.55668e-13
3.87455e-05
1.57983e-13
3.87455e-05
6.0564e-14
3.87455e-05
-6.67943e-14
3.87455e-05
-2.63542e-13
3.87455e-05
-5.95725e-13
3.87455e-05
-1.18835e-12
3.87455e-05
-2.25245e-12
3.87455e-05
-4.05834e-12
3.87455e-05
-7.48028e-12
-8.0712e-12
4.12463e-05
8.41375e-12
4.12463e-05
9.32876e-12
4.12463e-05
5.83792e-12
4.12464e-05
3.48051e-12
4.12464e-05
2.0529e-12
4.12464e-05
1.17761e-12
4.12464e-05
6.85243e-13
4.12464e-05
4.14201e-13
4.12464e-05
2.61829e-13
4.12464e-05
1.69653e-13
4.12464e-05
1.02725e-13
4.12464e-05
3.72761e-14
4.12464e-05
-4.77996e-14
4.12464e-05
-1.7938e-13
4.12464e-05
-4.02986e-13
4.12464e-05
-8.08721e-13
4.12464e-05
-1.5634e-12
4.12463e-05
-2.87485e-12
4.12463e-05
-5.67247e-12
-6.34751e-12
4.37473e-05
6.01704e-12
4.37473e-05
6.29301e-12
4.37473e-05
3.48249e-12
4.37473e-05
1.96072e-12
4.37473e-05
1.1247e-12
4.37473e-05
6.25565e-13
4.37473e-05
3.55845e-13
4.37473e-05
2.11891e-13
4.37473e-05
1.32329e-13
4.37473e-05
8.50156e-14
4.37473e-05
5.11208e-14
4.37473e-05
1.79551e-14
4.37473e-05
-2.57579e-14
4.37473e-05
-9.37732e-14
4.37473e-05
-2.09835e-13
4.37473e-05
-4.23932e-13
4.37473e-05
-8.41279e-13
4.37473e-05
-1.57124e-12
4.37473e-05
-3.45339e-12
-4.13233e-12
4.62484e-05
2.65795e-12
4.62484e-05
2.5463e-12
4.62484e-05
1.13763e-12
4.62484e-05
5.86791e-13
4.62484e-05
3.30282e-13
4.62484e-05
1.75131e-13
4.62484e-05
9.68475e-14
4.62484e-05
5.71112e-14
4.62484e-05
3.56447e-14
4.62484e-05
2.31394e-14
4.62484e-05
1.42816e-14
4.62484e-05
5.31293e-15
4.62484e-05
-7.30415e-15
4.62484e-05
-2.72092e-14
4.62484e-05
-6.07824e-14
4.62484e-05
-1.23698e-13
4.62484e-05
-2.55445e-13
4.62484e-05
-4.74831e-13
4.62484e-05
-1.2636e-12
-1.71085e-12
4.87494e-05
4.87494e-05
4.87494e-05
4.87495e-05
4.87495e-05
4.87495e-05
4.87495e-05
4.87495e-05
4.87495e-05
4.87495e-05
4.87495e-05
4.87495e-05
4.87495e-05
4.87495e-05
4.87495e-05
4.87495e-05
4.87495e-05
4.87495e-05
4.87494e-05
)
;

boundaryField
{
    top
    {
        type            calculated;
        value           uniform 0;
    }
    bottom
    {
        type            calculated;
        value           uniform 0;
    }
    inlet
    {
        type            calculated;
        value           nonuniform List<scalar> 
20
(
-1.24944e-06
-3.74835e-06
-6.24731e-06
-8.74634e-06
-1.12455e-05
-1.37447e-05
-1.6244e-05
-1.87436e-05
-2.12432e-05
-2.37431e-05
-2.62431e-05
-2.87432e-05
-3.12436e-05
-3.37441e-05
-3.62447e-05
-3.87455e-05
-4.12463e-05
-4.37473e-05
-4.62484e-05
-4.87494e-05
)
;
    }
    outlet
    {
        type            calculated;
        value           nonuniform List<scalar> 
20
(
1.24945e-06
3.74836e-06
6.24732e-06
8.74635e-06
1.12455e-05
1.37447e-05
1.6244e-05
1.87436e-05
2.12432e-05
2.3743e-05
2.6243e-05
2.87432e-05
3.12435e-05
3.3744e-05
3.62447e-05
3.87455e-05
4.12463e-05
4.37473e-05
4.62484e-05
4.87494e-05
)
;
    }
    frontAndBack
    {
        type            empty;
        value           nonuniform List<scalar> 0();
    }
}


// ************************************************************************* //
