/*--------------------------------*- C++ -*----------------------------------*\
  =========                 |
  \\      /  F ield         | OpenFOAM: The Open Source CFD Toolbox
   \\    /   O peration     | Website:  https://openfoam.org
    \\  /    A nd           | Version:  9
     \\/     M anipulation  |
\*---------------------------------------------------------------------------*/
FoamFile
{
    format      ascii;
    class       volVectorField;
    location    "1.1";
    object      U;
}
// * * * * * * * * * * * * * * * * * * * * * * * * * * * * * * * * * * * * * //

dimensions      [0 1 -1 0 0 0 0];

internalField   nonuniform List<vector> 
400
(
(0.0249889 -1.55026e-08 0)
(0.0249889 -1.24068e-08 0)
(0.024989 -5.20611e-09 0)
(0.024989 -2.76818e-09 0)
(0.024989 -1.52122e-09 0)
(0.024989 -7.99157e-10 0)
(0.024989 -4.23303e-10 0)
(0.024989 -2.03809e-10 0)
(0.024989 -8.32374e-11 0)
(0.024989 -2.65741e-11 0)
(0.024989 1.58306e-13 0)
(0.024989 1.70541e-11 0)
(0.024989 3.42834e-11 0)
(0.024989 6.38295e-11 0)
(0.024989 1.3304e-10 0)
(0.024989 3.33386e-10 0)
(0.024989 8.16323e-10 0)
(0.024989 1.93571e-09 0)
(0.024989 6.82353e-09 0)
(0.024989 8.00699e-09 0)
(0.0749671 -5.33708e-08 0)
(0.0749672 -4.74667e-08 0)
(0.0749673 -2.47496e-08 0)
(0.0749673 -1.41755e-08 0)
(0.0749674 -8.15216e-09 0)
(0.0749674 -4.49192e-09 0)
(0.0749674 -2.4254e-09 0)
(0.0749674 -1.2352e-09 0)
(0.0749674 -5.6157e-10 0)
(0.0749674 -2.00363e-10 0)
(0.0749674 -8.88213e-12 0)
(0.0749674 1.03978e-10 0)
(0.0749674 2.03281e-10 0)
(0.0749674 3.67023e-10 0)
(0.0749674 7.42385e-10 0)
(0.0749674 1.70257e-09 0)
(0.0749674 3.90927e-09 0)
(0.0749674 8.62769e-09 0)
(0.0749673 2.33696e-08 0)
(0.0749673 2.56641e-08 0)
(0.124946 -9.70386e-08 0)
(0.124946 -9.42634e-08 0)
(0.124946 -5.68658e-08 0)
(0.124946 -3.43242e-08 0)
(0.124947 -2.03776e-08 0)
(0.124947 -1.16062e-08 0)
(0.124947 -6.4036e-09 0)
(0.124947 -3.33754e-09 0)
(0.124947 -1.57119e-09 0)
(0.124947 -5.88762e-10 0)
(0.124947 -5.10011e-11 0)
(0.124947 2.64466e-10 0)
(0.124947 5.28808e-10 0)
(0.124947 9.42995e-10 0)
(0.124947 1.85791e-09 0)
(0.124947 4.03894e-09 0)
(0.124947 8.84792e-09 0)
(0.124947 1.84767e-08 0)
(0.124946 4.13962e-08 0)
(0.124946 4.25776e-08 0)
(0.174927 -1.33473e-07 0)
(0.174927 -1.3653e-07 0)
(0.174927 -8.99033e-08 0)
(0.174927 -5.64731e-08 0)
(0.174927 -3.44115e-08 0)
(0.174927 -2.00227e-08 0)
(0.174927 -1.11979e-08 0)
(0.174927 -5.90879e-09 0)
(0.174927 -2.81706e-09 0)
(0.174927 -1.06594e-09 0)
(0.174927 -9.83631e-11 0)
(0.174927 4.58131e-10 0)
(0.174927 8.9688e-10 0)
(0.174927 1.55042e-09 0)
(0.174927 2.96463e-09 0)
(0.174927 6.22048e-09 0)
(0.174927 1.31819e-08 0)
(0.174927 2.64116e-08 0)
(0.174927 5.30569e-08 0)
(0.174927 5.23365e-08 0)
(0.224909 -1.57319e-07 0)
(0.224909 -1.65792e-07 0)
(0.224909 -1.15737e-07 0)
(0.224909 -7.51507e-08 0)
(0.224909 -4.68374e-08 0)
(0.224909 -2.77392e-08 0)
(0.224909 -1.56884e-08 0)
(0.224909 -8.33461e-09 0)
(0.224909 -3.98092e-09 0)
(0.224909 -1.49227e-09 0)
(0.224909 -1.1873e-10 0)
(0.224909 6.47398e-10 0)
(0.224909 1.20267e-09 0)
(0.224909 1.97524e-09 0)
(0.224909 3.62819e-09 0)
(0.224909 7.37958e-09 0)
(0.224909 1.52523e-08 0)
(0.224909 2.95437e-08 0)
(0.224909 5.56063e-08 0)
(0.224909 5.33729e-08 0)
(0.274894 -1.67042e-07 0)
(0.274894 -1.79128e-07 0)
(0.274894 -1.30377e-07 0)
(0.274894 -8.6957e-08 0)
(0.274894 -5.5242e-08 0)
(0.274894 -3.31849e-08 0)
(0.274894 -1.89199e-08 0)
(0.274894 -1.00692e-08 0)
(0.274894 -4.77259e-09 0)
(0.274894 -1.73074e-09 0)
(0.274894 -6.71084e-11 0)
(0.274894 8.15499e-10 0)
(0.274894 1.37318e-09 0)
(0.274894 2.06878e-09 0)
(0.274894 3.57482e-09 0)
(0.274894 7.04828e-09 0)
(0.274894 1.43508e-08 0)
(0.274894 2.71515e-08 0)
(0.274894 4.91864e-08 0)
(0.274894 4.61371e-08 0)
(0.324881 -1.62895e-07 0)
(0.324881 -1.76342e-07 0)
(0.324881 -1.32328e-07 0)
(0.324881 -9.01421e-08 0)
(0.324881 -5.81663e-08 0)
(0.324881 -3.53231e-08 0)
(0.324881 -2.02255e-08 0)
(0.324881 -1.07171e-08 0)
(0.324881 -4.97631e-09 0)
(0.324881 -1.67722e-09 0)
(0.324881 9.3356e-11 0)
(0.324881 9.57708e-10 0)
(0.324881 1.37439e-09 0)
(0.324881 1.77122e-09 0)
(0.324881 2.72224e-09 0)
(0.324881 5.14863e-09 0)
(0.324881 1.0521e-08 0)
(0.324881 1.97361e-08 0)
(0.324881 3.53122e-08 0)
(0.324881 3.20519e-08 0)
(0.374871 -1.4608e-07 0)
(0.374871 -1.58645e-07 0)
(0.374871 -1.21778e-07 0)
(0.374871 -8.43003e-08 0)
(0.374871 -5.50721e-08 0)
(0.374871 -3.36915e-08 0)
(0.374871 -1.92794e-08 0)
(0.374871 -1.00763e-08 0)
(0.374871 -4.48103e-09 0)
(0.374871 -1.27942e-09 0)
(0.374871 3.8086e-10 0)
(0.374871 1.0764e-09 0)
(0.374871 1.20871e-09 0)
(0.374871 1.10548e-09 0)
(0.374871 1.15196e-09 0)
(0.374871 1.90522e-09 0)
(0.374871 4.2954e-09 0)
(0.374871 8.4526e-09 0)
(0.374871 1.59739e-08 0)
(0.374871 1.28919e-08 0)
(0.424864 -1.18722e-07 0)
(0.424864 -1.28419e-07 0)
(0.424864 -1.00273e-07 0)
(0.424864 -7.02449e-08 0)
(0.424864 -4.63287e-08 0)
(0.424864 -2.84401e-08 0)
(0.424864 -1.61401e-08 0)
(0.424864 -8.17458e-09 0)
(0.424864 -3.30602e-09 0)
(0.424864 -5.53363e-10 0)
(0.424864 7.8505e-10 0)
(0.424864 1.17471e-09 0)
(0.424864 9.08367e-10 0)
(0.424864 1.63284e-10 0)
(0.424864 -9.25137e-10 0)
(0.424864 -2.24068e-09 0)
(0.424864 -3.46993e-09 0)
(0.424864 -5.18583e-09 0)
(0.424864 -6.54868e-09 0)
(0.424864 -9.27927e-09 0)
(0.474861 -8.36125e-08 0)
(0.474861 -8.89078e-08 0)
(0.474861 -7.04297e-08 0)
(0.474861 -4.97944e-08 0)
(0.474861 -3.31039e-08 0)
(0.474861 -2.02816e-08 0)
(0.474861 -1.12334e-08 0)
(0.474861 -5.2648e-09 0)
(0.474861 -1.60099e-09 0)
(0.474861 4.15001e-10 0)
(0.474861 1.26438e-09 0)
(0.474861 1.25164e-09 0)
(0.474861 5.24786e-10 0)
(0.474861 -9.17789e-10 0)
(0.474861 -3.21766e-09 0)
(0.474861 -6.72326e-09 0)
(0.474861 -1.17597e-08 0)
(0.474861 -1.95182e-08 0)
(0.474861 -2.99196e-08 0)
(0.474861 -3.23189e-08 0)
(0.524861 -4.40347e-08 0)
(0.524861 -4.39759e-08 0)
(0.524861 -3.56322e-08 0)
(0.524861 -2.5519e-08 0)
(0.524861 -1.71789e-08 0)
(0.524861 -1.03736e-08 0)
(0.524861 -5.28001e-09 0)
(0.524861 -1.78274e-09 0)
(0.524861 3.77903e-10 0)
(0.524861 1.48234e-09 0)
(0.524861 1.7508e-09 0)
(0.524861 1.29957e-09 0)
(0.524861 1.1704e-10 0)
(0.524861 -1.98088e-09 0)
(0.524861 -5.40484e-09 0)
(0.524861 -1.09438e-08 0)
(0.524861 -1.95375e-08 0)
(0.524861 -3.29164e-08 0)
(0.524861 -5.18932e-08 0)
(0.524861 -5.41249e-08 0)
(0.574865 -3.54733e-09 0)
(0.574864 2.13035e-09 0)
(0.574864 2.52547e-10 0)
(0.574864 -4.50588e-10 0)
(0.574864 -7.13599e-10 0)
(0.574864 -1.46643e-10 0)
(0.574864 8.19568e-10 0)
(0.574864 1.72658e-09 0)
(0.574864 2.31252e-09 0)
(0.574864 2.47312e-09 0)
(0.574864 2.16148e-09 0)
(0.574864 1.30537e-09 0)
(0.574864 -2.58413e-10 0)
(0.574864 -2.87513e-09 0)
(0.574864 -7.18473e-09 0)
(0.574864 -1.43497e-08 0)
(0.574864 -2.58611e-08 0)
(0.574864 -4.39164e-08 0)
(0.574864 -7.04402e-08 0)
(0.574864 -7.27631e-08 0)
(0.624871 3.41849e-08 0)
(0.624871 4.4994e-08 0)
(0.624871 3.31759e-08 0)
(0.624871 2.22312e-08 0)
(0.624871 1.40323e-08 0)
(0.624871 8.90728e-09 0)
(0.624871 6.13295e-09 0)
(0.624871 4.70446e-09 0)
(0.624871 3.8818e-09 0)
(0.624871 3.21358e-09 0)
(0.624871 2.41593e-09 0)
(0.624871 1.25464e-09 0)
(0.624871 -5.55216e-10 0)
(0.624871 -3.47731e-09 0)
(0.624871 -8.31427e-09 0)
(0.624871 -1.64993e-08 0)
(0.624871 -2.9972e-08 0)
(0.624871 -5.1322e-08 0)
(0.624871 -8.38365e-08 0)
(0.624871 -8.65549e-08 0)
(0.674881 6.56238e-08 0)
(0.674881 8.02796e-08 0)
(0.674881 5.92346e-08 0)
(0.674881 3.95642e-08 0)
(0.674881 2.50109e-08 0)
(0.674881 1.54732e-08 0)
(0.674881 9.8588e-09 0)
(0.674881 6.68431e-09 0)
(0.674881 4.82602e-09 0)
(0.674881 3.56888e-09 0)
(0.674881 2.45502e-09 0)
(0.674881 1.13806e-09 0)
(0.674881 -7.41794e-10 0)
(0.674881 -3.70832e-09 0)
(0.674881 -8.64117e-09 0)
(0.674881 -1.71129e-08 0)
(0.674881 -3.13692e-08 0)
(0.674881 -5.4291e-08 0)
(0.674881 -9.07496e-08 0)
(0.674881 -9.41699e-08 0)
(0.724894 8.75289e-08 0)
(0.724894 1.03999e-07 0)
(0.724894 7.50856e-08 0)
(0.724894 4.92065e-08 0)
(0.724894 3.07263e-08 0)
(0.724894 1.86524e-08 0)
(0.724894 1.14862e-08 0)
(0.724894 7.38934e-09 0)
(0.724894 5.0051e-09 0)
(0.724894 3.47588e-09 0)
(0.724894 2.25792e-09 0)
(0.724894 9.57587e-10 0)
(0.724894 -8.0356e-10 0)
(0.724894 -3.54412e-09 0)
(0.724894 -8.12584e-09 0)
(0.724894 -1.61112e-08 0)
(0.724894 -2.9868e-08 0)
(0.724894 -5.24163e-08 0)
(0.724894 -9.03147e-08 0)
(0.724894 -9.46991e-08 0)
(0.774909 9.72912e-08 0)
(0.774909 1.12897e-07 0)
(0.774909 7.83955e-08 0)
(0.774909 4.98891e-08 0)
(0.774909 3.05519e-08 0)
(0.774909 1.81738e-08 0)
(0.774909 1.0918e-08 0)
(0.774909 6.80372e-09 0)
(0.774909 4.43688e-09 0)
(0.774909 2.96325e-09 0)
(0.774909 1.85169e-09 0)
(0.774909 7.29903e-10 0)
(0.774909 -7.43774e-10 0)
(0.774909 -3.02075e-09 0)
(0.774909 -6.85288e-09 0)
(0.774909 -1.36378e-08 0)
(0.774909 -2.56462e-08 0)
(0.774909 -4.57963e-08 0)
(0.774909 -8.22333e-08 0)
(0.774909 -8.7749e-08 0)
(0.824927 9.2932e-08 0)
(0.824927 1.04761e-07 0)
(0.824927 6.84642e-08 0)
(0.824927 4.18362e-08 0)
(0.824927 2.49932e-08 0)
(0.824927 1.4517e-08 0)
(0.824927 8.52789e-09 0)
(0.824927 5.19281e-09 0)
(0.824927 3.30311e-09 0)
(0.824927 2.15172e-09 0)
(0.824927 1.31021e-09 0)
(0.824927 4.85693e-10 0)
(0.824927 -5.83039e-10 0)
(0.824927 -2.23237e-09 0)
(0.824927 -5.02908e-09 0)
(0.824927 -1.0066e-08 0)
(0.824927 -1.92729e-08 0)
(0.824927 -3.51184e-08 0)
(0.824927 -6.68322e-08 0)
(0.824927 -7.34436e-08 0)
(0.874946 7.41612e-08 0)
(0.874946 7.99534e-08 0)
(0.874946 4.73899e-08 0)
(0.874947 2.74299e-08 0)
(0.874947 1.59202e-08 0)
(0.874947 8.98366e-09 0)
(0.874947 5.15875e-09 0)
(0.874947 3.08539e-09 0)
(0.874947 1.93053e-09 0)
(0.874947 1.23907e-09 0)
(0.874947 7.42966e-10 0)
(0.874947 2.61064e-10 0)
(0.874947 -3.67136e-10 0)
(0.874947 -1.3408e-09 0)
(0.874947 -2.9979e-09 0)
(0.874947 -6.03424e-09 0)
(0.874947 -1.18233e-08 0)
(0.874947 -2.19754e-08 0)
(0.874946 -4.56649e-08 0)
(0.874946 -5.27926e-08 0)
(0.924967 4.40028e-08 0)
(0.924967 4.42725e-08 0)
(0.924967 2.22505e-08 0)
(0.924967 1.18386e-08 0)
(0.924967 6.64296e-09 0)
(0.924967 3.59022e-09 0)
(0.924967 2.00116e-09 0)
(0.924967 1.17884e-09 0)
(0.924967 7.32114e-10 0)
(0.924967 4.70189e-10 0)
(0.924967 2.83803e-10 0)
(0.924967 9.86826e-11 0)
(0.924967 -1.51857e-10 0)
(0.924967 -5.45266e-10 0)
(0.924967 -1.21764e-09 0)
(0.924967 -2.47528e-09 0)
(0.924967 -5.01967e-09 0)
(0.924967 -9.46295e-09 0)
(0.924967 -2.28199e-08 0)
(0.924967 -2.87913e-08 0)
(0.974989 1.35869e-08 0)
(0.974989 1.26874e-08 0)
(0.974989 5.06228e-09 0)
(0.974989 2.35532e-09 0)
(0.974989 1.26855e-09 0)
(0.974989 6.3701e-10 0)
(0.974989 3.39488e-10 0)
(0.974989 1.97136e-10 0)
(0.974989 1.2186e-10 0)
(0.974989 7.83456e-11 0)
(0.974989 4.75967e-11 0)
(0.974989 1.49624e-11 0)
(0.974989 -3.45849e-11 0)
(0.974989 -1.14476e-10 0)
(0.974989 -2.44897e-10 0)
(0.974989 -4.9283e-10 0)
(0.974989 -1.04974e-09 0)
(0.974989 -1.97954e-09 0)
(0.974989 -5.94226e-09 0)
(0.974989 -8.30689e-09 0)
)
;

boundaryField
{
    top
    {
        type            fixedValue;
        value           uniform (1 0 0);
    }
    bottom
    {
        type            fixedValue;
        value           uniform (0 0 0);
    }
    inlet
    {
        type            zeroGradient;
    }
    outlet
    {
        type            zeroGradient;
    }
    frontAndBack
    {
        type            empty;
    }
}


// ************************************************************************* //
