/*--------------------------------*- C++ -*----------------------------------*\
  =========                 |
  \\      /  F ield         | OpenFOAM: The Open Source CFD Toolbox
   \\    /   O peration     | Website:  https://openfoam.org
    \\  /    A nd           | Version:  9
     \\/     M anipulation  |
\*---------------------------------------------------------------------------*/
FoamFile
{
    format      ascii;
    class       volScalarField;
    location    "0.5";
    object      p;
}
// * * * * * * * * * * * * * * * * * * * * * * * * * * * * * * * * * * * * * //

dimensions      [0 2 -2 0 0 0 0];

internalField   nonuniform List<scalar> 
400
(
9.57795e-07
1.73039e-06
1.70066e-06
1.53332e-06
1.33056e-06
1.13075e-06
9.55432e-07
8.00822e-07
6.54864e-07
5.16585e-07
3.79808e-07
2.44233e-07
1.12509e-07
-2.44594e-08
-1.7928e-07
-3.54927e-07
-5.39458e-07
-7.01189e-07
-8.2001e-07
-5.24187e-07
8.82801e-07
1.59707e-06
1.55854e-06
1.43441e-06
1.27138e-06
1.1011e-06
9.42907e-07
7.98181e-07
6.57062e-07
5.19852e-07
3.84843e-07
2.51609e-07
1.213e-07
-1.37657e-08
-1.62649e-07
-3.25917e-07
-4.91526e-07
-6.28698e-07
-7.50066e-07
-4.82951e-07
8.57571e-07
1.55566e-06
1.4721e-06
1.3656e-06
1.2267e-06
1.07712e-06
9.32185e-07
7.95389e-07
6.58613e-07
5.22897e-07
3.90043e-07
2.58983e-07
1.29121e-07
-5.13259e-09
-1.4891e-07
-3.01702e-07
-4.54275e-07
-5.7987e-07
-7.31914e-07
-4.76452e-07
8.57233e-07
1.58029e-06
1.42896e-06
1.32117e-06
1.19401e-06
1.05796e-06
9.22687e-07
7.91606e-07
6.59342e-07
5.26262e-07
3.95268e-07
2.65095e-07
1.34823e-07
1.32947e-09
-1.37572e-07
-2.81864e-07
-4.26969e-07
-5.52466e-07
-7.50329e-07
-4.83896e-07
8.59045e-07
1.63012e-06
1.40933e-06
1.29203e-06
1.16948e-06
1.04163e-06
9.14303e-07
7.87806e-07
6.60019e-07
5.30065e-07
3.99725e-07
2.68828e-07
1.38077e-07
6.34537e-09
-1.27437e-07
-2.64735e-07
-4.05641e-07
-5.36139e-07
-7.80941e-07
-4.89779e-07
8.60434e-07
1.68829e-06
1.4028e-06
1.27242e-06
1.15054e-06
1.02699e-06
9.06721e-07
7.85235e-07
6.61003e-07
5.32854e-07
4.02191e-07
2.70337e-07
1.39728e-07
1.05381e-08
-1.18169e-07
-2.49557e-07
-3.87877e-07
-5.24656e-07
-8.12448e-07
-4.91767e-07
8.63794e-07
1.74795e-06
1.40575e-06
1.2602e-06
1.13695e-06
1.01562e-06
9.00992e-07
7.8405e-07
6.61975e-07
5.34094e-07
4.02596e-07
2.70191e-07
1.40429e-07
1.4123e-08
-1.09963e-07
-2.36485e-07
-3.73154e-07
-5.15795e-07
-8.39397e-07
-4.90467e-07
8.70087e-07
1.80196e-06
1.41412e-06
1.25395e-06
1.12875e-06
1.00876e-06
8.98003e-07
7.84142e-07
6.62776e-07
5.3411e-07
4.01704e-07
2.69334e-07
1.40986e-07
1.75933e-08
-1.02554e-07
-2.252e-07
-3.60669e-07
-5.07763e-07
-8.5807e-07
-4.86653e-07
8.79527e-07
1.8444e-06
1.42457e-06
1.25314e-06
1.12628e-06
1.00707e-06
8.98275e-07
7.85608e-07
6.6367e-07
5.33678e-07
4.00582e-07
2.68796e-07
1.42199e-07
2.14906e-08
-9.55536e-08
-2.15289e-07
-3.49709e-07
-4.99267e-07
-8.66116e-07
-4.81046e-07
8.92207e-07
1.87174e-06
1.43523e-06
1.25782e-06
1.13005e-06
1.01083e-06
9.02054e-07
7.88707e-07
6.65189e-07
5.33699e-07
4.00253e-07
2.69431e-07
1.44622e-07
2.61043e-08
-8.87993e-08
-2.06567e-07
-3.39898e-07
-4.89655e-07
-8.62459e-07
-4.74267e-07
9.07982e-07
1.88254e-06
1.44547e-06
1.26826e-06
1.1404e-06
1.0201e-06
9.09412e-07
7.93723e-07
6.67913e-07
5.34989e-07
4.01519e-07
2.71798e-07
1.48482e-07
3.1406e-08
-8.24116e-08
-1.99094e-07
-3.31166e-07
-4.78799e-07
-8.47033e-07
-4.66722e-07
9.26202e-07
1.87688e-06
1.45557e-06
1.28481e-06
1.15755e-06
1.03489e-06
9.20412e-07
8.00946e-07
6.72347e-07
5.38152e-07
4.04882e-07
2.76132e-07
1.53719e-07
3.71321e-08
-7.66918e-08
-1.93068e-07
-3.23622e-07
-4.66965e-07
-8.2062e-07
-4.58578e-07
9.45635e-07
1.85623e-06
1.46664e-06
1.30814e-06
1.1819e-06
1.05545e-06
9.35356e-07
8.10814e-07
6.78985e-07
5.43606e-07
4.1056e-07
2.82387e-07
1.60056e-07
4.28958e-08
-7.19955e-08
-1.88712e-07
-3.17489e-07
-4.54808e-07
-7.84882e-07
-4.49867e-07
9.64633e-07
1.8237e-06
1.48099e-06
1.33954e-06
1.2143e-06
1.08253e-06
9.55014e-07
8.24105e-07
6.88474e-07
5.51722e-07
4.18587e-07
2.90303e-07
1.67076e-07
4.82952e-08
-6.86249e-08
-1.86243e-07
-3.13144e-07
-4.43485e-07
-7.42534e-07
-4.40666e-07
9.81442e-07
1.78447e-06
1.50223e-06
1.3811e-06
1.2561e-06
1.11724e-06
9.80459e-07
8.41838e-07
7.01584e-07
5.62852e-07
4.2887e-07
2.99452e-07
1.74267e-07
5.30016e-08
-6.67357e-08
-1.85895e-07
-3.11228e-07
-4.34729e-07
-6.97429e-07
-4.31218e-07
9.94345e-07
1.74588e-06
1.53494e-06
1.43495e-06
1.30831e-06
1.16016e-06
1.01224e-06
8.64588e-07
7.18716e-07
5.77003e-07
4.41006e-07
3.09201e-07
1.81046e-07
5.67847e-08
-6.62935e-08
-1.8796e-07
-3.12728e-07
-4.3065e-07
-6.54157e-07
-4.21748e-07
1.00205e-06
1.71786e-06
1.58427e-06
1.50249e-06
1.37074e-06
1.21049e-06
1.04956e-06
8.91783e-07
7.39309e-07
5.93361e-07
4.54006e-07
3.18707e-07
1.86865e-07
5.94423e-08
-6.71926e-08
-1.92768e-07
-3.18899e-07
-4.33428e-07
-6.17491e-07
-4.12114e-07
1.01065e-06
1.72292e-06
1.66429e-06
1.59077e-06
1.4467e-06
1.26945e-06
1.09264e-06
9.23244e-07
7.62767e-07
6.10782e-07
4.66636e-07
3.27447e-07
1.91692e-07
6.04928e-08
-7.01696e-08
-2.01334e-07
-3.32168e-07
-4.47938e-07
-5.96762e-07
-4.04822e-07
1.04437e-06
1.80206e-06
1.80057e-06
1.71378e-06
1.54401e-06
1.34126e-06
1.14344e-06
9.59348e-07
7.88572e-07
6.28564e-07
4.7832e-07
3.35036e-07
1.95459e-07
5.97562e-08
-7.60569e-08
-2.14965e-07
-3.55525e-07
-4.8203e-07
-6.09911e-07
-4.11485e-07
1.13913e-06
1.97736e-06
1.99708e-06
1.87292e-06
1.66258e-06
1.42521e-06
1.20101e-06
9.98797e-07
8.15498e-07
6.46149e-07
4.8906e-07
3.41372e-07
1.97962e-07
5.73442e-08
-8.48292e-08
-2.34115e-07
-3.90234e-07
-5.38743e-07
-6.70585e-07
-4.49806e-07
)
;

boundaryField
{
    top
    {
        type            zeroGradient;
    }
    bottom
    {
        type            zeroGradient;
    }
    inlet
    {
        type            fixedValue;
        value           uniform 0;
    }
    outlet
    {
        type            fixedValue;
        value           uniform 0;
    }
    frontAndBack
    {
        type            empty;
    }
}


// ************************************************************************* //
