/*--------------------------------*- C++ -*----------------------------------*\
  =========                 |
  \\      /  F ield         | OpenFOAM: The Open Source CFD Toolbox
   \\    /   O peration     | Website:  https://openfoam.org
    \\  /    A nd           | Version:  9
     \\/     M anipulation  |
\*---------------------------------------------------------------------------*/
FoamFile
{
    format      ascii;
    class       surfaceScalarField;
    location    "0.5";
    object      phi;
}
// * * * * * * * * * * * * * * * * * * * * * * * * * * * * * * * * * * * * * //

dimensions      [0 3 -1 0 0 0 0];

internalField   nonuniform List<scalar> 
760
(
1.22902e-06
-5.42168e-12
1.22902e-06
-5.78646e-12
1.22903e-06
-3.64075e-12
1.22903e-06
-2.11655e-12
1.22903e-06
-1.11042e-12
1.22903e-06
-4.64524e-13
1.22903e-06
-1.30048e-13
1.22903e-06
3.02335e-14
1.22903e-06
1.05799e-13
1.22903e-06
1.02224e-13
1.22903e-06
1.0436e-13
1.22903e-06
1.17025e-13
1.22903e-06
1.21309e-13
1.22903e-06
1.53861e-13
1.22903e-06
2.71978e-13
1.22903e-06
5.40316e-13
1.22903e-06
1.03755e-12
1.22903e-06
1.84518e-12
1.22902e-06
3.37147e-12
3.68818e-12
3.68758e-06
-1.29201e-11
3.68759e-06
-1.52215e-11
3.6876e-06
-1.07712e-11
3.6876e-06
-6.58809e-12
3.6876e-06
-3.54794e-12
3.68761e-06
-1.5316e-12
3.68761e-06
-4.14601e-13
3.68761e-06
1.2759e-13
3.68761e-06
3.76978e-13
3.68761e-06
4.12335e-13
3.68761e-06
4.04596e-13
3.6876e-06
4.09735e-13
3.6876e-06
4.51895e-13
3.6876e-06
6.16931e-13
3.6876e-06
1.03244e-12
3.6876e-06
1.88502e-12
3.6876e-06
3.4075e-12
3.6876e-06
5.75642e-12
3.68759e-06
9.17461e-12
8.95895e-12
6.14769e-06
-1.8847e-11
6.1477e-06
-2.32522e-11
6.1477e-06
-1.73175e-11
6.14771e-06
-1.08245e-11
6.14771e-06
-5.81515e-12
6.14771e-06
-2.42248e-12
6.14771e-06
-4.80357e-13
6.14771e-06
4.62008e-13
6.14771e-06
8.62465e-13
6.14771e-06
9.09422e-13
6.14771e-06
8.61133e-13
6.14771e-06
8.33013e-13
6.14771e-06
9.03104e-13
6.14771e-06
1.21123e-12
6.14771e-06
1.96134e-12
6.14771e-06
3.46087e-12
6.1477e-06
6.07128e-12
6.1477e-06
9.93845e-12
6.14769e-06
1.47152e-11
1.35377e-11
8.61032e-06
-2.17308e-11
8.61033e-06
-2.7459e-11
8.61033e-06
-2.11139e-11
8.61033e-06
-1.32731e-11
8.61033e-06
-6.94014e-12
8.61033e-06
-2.57964e-12
8.61033e-06
-5.3147e-14
8.61033e-06
1.13598e-12
8.61033e-06
1.58589e-12
8.61033e-06
1.5838e-12
8.61033e-06
1.44468e-12
8.61033e-06
1.341e-12
8.61033e-06
1.40102e-12
8.61033e-06
1.80889e-12
8.61033e-06
2.82596e-12
8.61033e-06
4.83948e-12
8.61033e-06
8.2733e-12
8.61032e-06
1.31785e-11
8.61032e-06
1.85766e-11
1.65798e-11
1.10764e-05
-2.13542e-11
1.10764e-05
-2.74196e-11
1.10764e-05
-2.13317e-11
1.10764e-05
-1.31695e-11
1.10764e-05
-6.37435e-12
1.10764e-05
-1.67236e-12
1.10764e-05
1.0287e-12
1.10764e-05
2.21839e-12
1.10764e-05
2.55767e-12
1.10764e-05
2.40886e-12
1.10764e-05
2.1172e-12
1.10764e-05
1.89017e-12
1.10764e-05
1.88814e-12
1.10764e-05
2.31941e-12
1.10764e-05
3.46894e-12
1.10764e-05
5.74699e-12
1.10764e-05
9.57125e-12
1.10764e-05
1.4862e-11
1.10764e-05
2.02313e-11
1.77597e-11
1.35467e-05
-1.78539e-11
1.35467e-05
-2.32878e-11
1.35467e-05
-1.78259e-11
1.35467e-05
-1.02515e-11
1.35467e-05
-3.88787e-12
1.35467e-05
4.51783e-13
1.35467e-05
2.83277e-12
1.35467e-05
3.71731e-12
1.35467e-05
3.7567e-12
1.35467e-05
3.347e-12
1.35467e-05
2.83527e-12
1.35467e-05
2.43533e-12
1.35467e-05
2.3135e-12
1.35467e-05
2.67571e-12
1.35467e-05
3.79183e-12
1.35467e-05
6.03843e-12
1.35467e-05
9.77274e-12
1.35467e-05
1.47945e-11
1.35467e-05
1.95742e-11
1.70112e-11
1.60221e-05
-1.16715e-11
1.60221e-05
-1.56283e-11
1.60221e-05
-1.09495e-11
1.60221e-05
-4.68359e-12
1.60221e-05
4.3927e-13
1.60221e-05
3.74079e-12
1.60221e-05
5.30761e-12
1.60221e-05
5.57132e-12
1.60221e-05
5.12266e-12
1.60221e-05
4.34296e-12
1.60221e-05
3.54908e-12
1.60221e-05
2.93227e-12
1.60221e-05
2.63744e-12
1.60221e-05
2.84058e-12
1.60221e-05
3.76034e-12
1.60221e-05
5.69219e-12
1.60221e-05
8.89687e-12
1.60221e-05
1.30905e-11
1.60221e-05
1.68469e-11
1.45293e-11
1.85031e-05
-3.4646e-12
1.85031e-05
-5.28891e-12
1.85031e-05
-1.42561e-12
1.8503e-05
3.01393e-12
1.8503e-05
6.24799e-12
1.8503e-05
7.94451e-12
1.8503e-05
8.27661e-12
1.8503e-05
7.6475e-12
1.8503e-05
6.55525e-12
1.8503e-05
5.32185e-12
1.8503e-05
4.20246e-12
1.8503e-05
3.34006e-12
1.8503e-05
2.83417e-12
1.8503e-05
2.80716e-12
1.8503e-05
3.39793e-12
1.8503e-05
4.78735e-12
1.8503e-05
7.1194e-12
1.8503e-05
1.007e-11
1.8503e-05
1.24982e-11
1.06731e-11
2.09901e-05
5.96284e-12
2.09901e-05
6.69136e-12
2.09901e-05
9.75626e-12
2.09901e-05
1.20439e-11
2.09901e-05
1.2949e-11
2.09901e-05
1.26447e-11
2.09901e-05
1.14527e-11
2.09901e-05
9.7493e-12
2.09901e-05
7.92004e-12
2.09901e-05
6.19299e-12
2.09901e-05
4.73567e-12
2.09901e-05
3.6231e-12
2.09901e-05
2.89181e-12
2.09901e-05
2.59444e-12
2.09901e-05
2.77224e-12
2.09901e-05
3.47342e-12
2.09901e-05
4.71628e-12
2.09901e-05
6.17208e-12
2.09901e-05
7.08731e-12
5.89801e-12
2.34836e-05
1.57212e-11
2.34836e-05
1.91566e-11
2.34835e-05
2.14339e-11
2.34835e-05
2.14187e-11
2.34835e-05
1.97888e-11
2.34835e-05
1.73029e-11
2.34835e-05
1.44702e-11
2.34835e-05
1.16362e-11
2.34835e-05
9.06169e-12
2.34835e-05
6.85872e-12
2.34835e-05
5.09066e-12
2.34835e-05
3.75333e-12
2.34835e-05
2.81115e-12
2.34835e-05
2.24045e-12
2.34835e-05
1.9789e-12
2.34835e-05
1.93891e-12
2.34835e-05
2.01245e-12
2.34835e-05
1.88559e-12
2.34835e-05
1.21628e-12
7.06275e-13
2.59836e-05
2.48925e-11
2.59836e-05
3.09032e-11
2.59835e-05
3.23621e-11
2.59835e-05
3.00558e-11
2.59835e-05
2.59313e-11
2.59835e-05
2.13241e-11
2.59835e-05
1.69307e-11
2.59835e-05
1.30539e-11
2.59835e-05
9.8238e-12
2.59835e-05
7.22703e-12
2.59835e-05
5.21838e-12
2.59835e-05
3.71311e-12
2.59835e-05
2.60404e-12
2.59835e-05
1.79475e-12
2.59835e-05
1.12537e-12
2.59835e-05
3.8277e-13
2.59835e-05
-6.61147e-13
2.59835e-05
-2.30375e-12
2.59835e-05
-4.51998e-12
-4.39389e-12
2.84901e-05
3.25885e-11
2.84901e-05
4.075e-11
2.84901e-05
4.13065e-11
2.84901e-05
3.68815e-11
2.84901e-05
3.0553e-11
2.84901e-05
2.4132e-11
2.84901e-05
1.84587e-11
2.84901e-05
1.37726e-11
2.84901e-05
1.00734e-11
2.84901e-05
7.22672e-12
2.84901e-05
5.08705e-12
2.84901e-05
3.49838e-12
2.84901e-05
2.29187e-12
2.84901e-05
1.31149e-12
2.84901e-05
3.16645e-13
2.84901e-05
-1.00968e-12
2.84901e-05
-3.00194e-12
2.84901e-05
-5.95382e-12
2.84901e-05
-9.57172e-12
-8.92255e-12
3.10031e-05
3.80087e-11
3.10031e-05
4.76141e-11
3.10031e-05
4.71475e-11
3.10031e-05
4.0947e-11
3.10031e-05
3.29488e-11
3.10031e-05
2.52544e-11
3.10031e-05
1.87632e-11
3.10031e-05
1.36283e-11
3.10031e-05
9.72721e-12
3.10031e-05
6.82271e-12
3.10031e-05
4.69029e-12
3.10031e-05
3.12156e-12
3.10031e-05
1.90409e-12
3.10031e-05
8.43195e-13
3.10031e-05
-3.56588e-13
3.10031e-05
-2.08577e-12
3.10031e-05
-4.76252e-12
3.10031e-05
-8.69726e-12
3.10031e-05
-1.34647e-11
-1.24576e-11
3.35221e-05
4.05017e-11
3.35221e-05
5.05968e-11
3.35221e-05
4.90016e-11
3.35221e-05
4.15575e-11
3.35221e-05
3.26458e-11
3.35221e-05
2.44087e-11
3.35221e-05
1.76982e-11
3.35221e-05
1.25616e-11
3.35221e-05
8.77454e-12
3.35221e-05
6.02901e-12
3.35221e-05
4.05327e-12
3.35221e-05
2.61328e-12
3.35221e-05
1.47658e-12
3.35221e-05
4.35641e-13
3.35221e-05
-8.27224e-13
3.35221e-05
-2.73979e-12
3.35221e-05
-5.77127e-12
3.35221e-05
-1.02663e-11
3.35221e-05
-1.58255e-11
-1.46606e-11
3.60468e-05
3.96325e-11
3.60468e-05
4.90928e-11
3.60468e-05
4.63674e-11
3.60468e-05
3.84135e-11
3.60468e-05
2.9516e-11
3.60468e-05
2.15822e-11
3.60468e-05
1.53131e-11
3.60468e-05
1.06471e-11
3.60468e-05
7.29354e-12
3.60468e-05
4.91596e-12
3.60468e-05
3.23498e-12
3.60468e-05
2.0218e-12
3.60468e-05
1.04927e-12
3.60468e-05
1.23468e-13
3.60468e-05
-1.05878e-12
3.60468e-05
-2.92323e-12
3.60468e-05
-5.94828e-12
3.60468e-05
-1.05151e-11
3.60468e-05
-1.64061e-11
-1.53005e-11
3.85764e-05
3.52674e-11
3.85764e-05
4.29377e-11
3.85764e-05
3.93028e-11
3.85764e-05
3.17568e-11
3.85764e-05
2.38748e-11
3.85764e-05
1.70889e-11
3.85765e-05
1.18821e-11
3.85765e-05
8.10652e-12
3.85765e-05
5.45393e-12
3.85765e-05
3.60886e-12
3.85765e-05
2.32502e-12
3.85765e-05
1.40914e-12
3.85765e-05
6.62528e-13
3.85765e-05
-7.32055e-14
3.85765e-05
-1.05017e-12
3.85765e-05
-2.65154e-12
3.85765e-05
-5.31766e-12
3.85765e-05
-9.44271e-12
3.85765e-05
-1.51131e-11
-1.42801e-11
4.11103e-05
2.76979e-11
4.11103e-05
3.26234e-11
4.11104e-05
2.86335e-11
4.11104e-05
2.2502e-11
4.11104e-05
1.65421e-11
4.11104e-05
1.15882e-11
4.11104e-05
7.90061e-12
4.11104e-05
5.29489e-12
4.11104e-05
3.50278e-12
4.11104e-05
2.27555e-12
4.11104e-05
1.43401e-12
4.11104e-05
8.43479e-13
4.11104e-05
3.51624e-13
4.11104e-05
-1.51042e-13
4.11104e-05
-8.37593e-13
4.11104e-05
-2.00855e-12
4.11104e-05
-4.01835e-12
4.11104e-05
-7.2223e-12
4.11104e-05
-1.20522e-11
-1.1673e-11
4.36477e-05
1.77955e-11
4.36477e-05
1.96161e-11
4.36477e-05
1.61708e-11
4.36477e-05
1.23103e-11
4.36477e-05
8.83306e-12
4.36477e-05
6.04294e-12
4.36478e-05
4.03652e-12
4.36478e-05
2.65878e-12
4.36478e-05
1.73114e-12
4.36478e-05
1.10292e-12
4.36478e-05
6.78429e-13
4.36478e-05
3.87759e-13
4.36478e-05
1.37989e-13
4.36478e-05
-1.24508e-13
4.36478e-05
-4.91107e-13
4.36478e-05
-1.14868e-12
4.36478e-05
-2.31828e-12
4.36478e-05
-4.24414e-12
4.36477e-05
-7.59639e-12
-7.75935e-12
4.61876e-05
7.12416e-12
4.61876e-05
6.93905e-12
4.61876e-05
5.11098e-12
4.61876e-05
3.71024e-12
4.61876e-05
2.57293e-12
4.61876e-05
1.6963e-12
4.61876e-05
1.10032e-12
4.61876e-05
7.10694e-13
4.61876e-05
4.55017e-13
4.61876e-05
2.8013e-13
4.61876e-05
1.65697e-13
4.61876e-05
9.54822e-14
4.61876e-05
2.90324e-14
4.61876e-05
-4.42501e-14
4.61876e-05
-1.43668e-13
4.61876e-05
-3.38635e-13
4.61876e-05
-7.09401e-13
4.61876e-05
-1.35121e-12
4.61876e-05
-2.79997e-12
-3.20739e-12
4.8729e-05
4.8729e-05
4.8729e-05
4.8729e-05
4.8729e-05
4.8729e-05
4.8729e-05
4.8729e-05
4.8729e-05
4.8729e-05
4.8729e-05
4.8729e-05
4.8729e-05
4.8729e-05
4.8729e-05
4.8729e-05
4.8729e-05
4.8729e-05
4.8729e-05
)
;

boundaryField
{
    top
    {
        type            calculated;
        value           uniform 0;
    }
    bottom
    {
        type            calculated;
        value           uniform 0;
    }
    inlet
    {
        type            calculated;
        value           nonuniform List<scalar> 
20
(
-1.22901e-06
-3.68757e-06
-6.14768e-06
-8.61032e-06
-1.10764e-05
-1.35467e-05
-1.60221e-05
-1.85031e-05
-2.09901e-05
-2.34836e-05
-2.59836e-05
-2.84901e-05
-3.10031e-05
-3.35221e-05
-3.60468e-05
-3.85764e-05
-4.11103e-05
-4.36477e-05
-4.61876e-05
-4.8729e-05
)
;
    }
    outlet
    {
        type            calculated;
        value           nonuniform List<scalar> 
20
(
1.22902e-06
3.68758e-06
6.14769e-06
8.61031e-06
1.10764e-05
1.35467e-05
1.60221e-05
1.8503e-05
2.09901e-05
2.34835e-05
2.59835e-05
2.84901e-05
3.10031e-05
3.35221e-05
3.60468e-05
3.85765e-05
4.11104e-05
4.36477e-05
4.61876e-05
4.8729e-05
)
;
    }
    frontAndBack
    {
        type            empty;
        value           nonuniform List<scalar> 0();
    }
}


// ************************************************************************* //
