/*--------------------------------*- C++ -*----------------------------------*\
  =========                 |
  \\      /  F ield         | OpenFOAM: The Open Source CFD Toolbox
   \\    /   O peration     | Website:  https://openfoam.org
    \\  /    A nd           | Version:  9
     \\/     M anipulation  |
\*---------------------------------------------------------------------------*/
FoamFile
{
    format      ascii;
    class       volVectorField;
    location    "0.5";
    object      U;
}
// * * * * * * * * * * * * * * * * * * * * * * * * * * * * * * * * * * * * * //

dimensions      [0 1 -1 0 0 0 0];

internalField   nonuniform List<vector> 
400
(
(0.0245803 -2.78897e-08 0)
(0.0245804 -3.05137e-08 0)
(0.0245805 -1.86992e-08 0)
(0.0245806 -1.07756e-08 0)
(0.0245806 -5.69657e-09 0)
(0.0245806 -2.44569e-09 0)
(0.0245806 -9.26044e-10 0)
(0.0245806 2.04429e-11 0)
(0.0245806 3.81183e-10 0)
(0.0245806 1.39918e-10 0)
(0.0245806 2.81542e-10 0)
(0.0245806 6.03572e-10 0)
(0.0245806 6.52713e-10 0)
(0.0245806 6.60757e-10 0)
(0.0245806 1.1187e-09 0)
(0.0245806 2.38745e-09 0)
(0.0245806 4.75128e-09 0)
(0.0245805 8.63072e-09 0)
(0.0245805 1.65398e-08 0)
(0.0245804 1.81794e-08 0)
(0.0737515 -9.17543e-08 0)
(0.0737517 -1.03572e-07 0)
(0.0737519 -6.9493e-08 0)
(0.073752 -4.14023e-08 0)
(0.0737521 -2.20585e-08 0)
(0.0737521 -9.45898e-09 0)
(0.0737521 -2.7065e-09 0)
(0.0737521 4.14016e-10 0)
(0.0737521 1.9538e-09 0)
(0.0737521 2.15956e-09 0)
(0.0737521 2.14916e-09 0)
(0.0737521 2.25922e-09 0)
(0.0737521 2.47959e-09 0)
(0.0737521 3.35571e-09 0)
(0.0737521 5.76276e-09 0)
(0.0737521 1.0925e-08 0)
(0.073752 2.04161e-08 0)
(0.073752 3.56789e-08 0)
(0.0737518 6.08757e-08 0)
(0.0737517 6.25105e-08 0)
(0.122954 -1.63853e-07 0)
(0.122954 -1.98248e-07 0)
(0.122954 -1.44683e-07 0)
(0.122954 -8.97829e-08 0)
(0.122954 -4.8645e-08 0)
(0.122954 -2.10889e-08 0)
(0.122954 -5.52746e-09 0)
(0.122954 2.22224e-09 0)
(0.122954 5.60331e-09 0)
(0.122954 6.03242e-09 0)
(0.122954 5.95666e-09 0)
(0.122954 6.0621e-09 0)
(0.122954 6.67378e-09 0)
(0.122954 8.99397e-09 0)
(0.122954 1.48364e-08 0)
(0.122954 2.67331e-08 0)
(0.122954 4.76594e-08 0)
(0.122954 7.92234e-08 0)
(0.122954 1.21082e-07 0)
(0.122954 1.14348e-07 0)
(0.172206 -2.10518e-07 0)
(0.172206 -2.62682e-07 0)
(0.172207 -1.99672e-07 0)
(0.172207 -1.25791e-07 0)
(0.172207 -6.72719e-08 0)
(0.172207 -2.71588e-08 0)
(0.172207 -4.068e-09 0)
(0.172207 6.92017e-09 0)
(0.172207 1.15687e-08 0)
(0.172207 1.21444e-08 0)
(0.172207 1.13464e-08 0)
(0.172207 1.07109e-08 0)
(0.172207 1.14218e-08 0)
(0.172207 1.51575e-08 0)
(0.172207 2.42694e-08 0)
(0.172207 4.23159e-08 0)
(0.172207 7.33662e-08 0)
(0.172206 1.18502e-07 0)
(0.172206 1.70766e-07 0)
(0.172206 1.54681e-07 0)
(0.221528 -2.23806e-07 0)
(0.221528 -2.84795e-07 0)
(0.221528 -2.21554e-07 0)
(0.221528 -1.3909e-07 0)
(0.221528 -7.12727e-08 0)
(0.221528 -2.43183e-08 0)
(0.221528 3.03641e-09 0)
(0.221528 1.56738e-08 0)
(0.221528 2.01129e-08 0)
(0.221528 1.96782e-08 0)
(0.221528 1.76705e-08 0)
(0.221528 1.60934e-08 0)
(0.221528 1.65132e-08 0)
(0.221528 2.09575e-08 0)
(0.221528 3.2216e-08 0)
(0.221528 5.43972e-08 0)
(0.221528 9.18562e-08 0)
(0.221528 1.44439e-07 0)
(0.221528 1.99626e-07 0)
(0.221528 1.76657e-07 0)
(0.270935 -2.0355e-07 0)
(0.270935 -2.62905e-07 0)
(0.270935 -2.04715e-07 0)
(0.270935 -1.24084e-07 0)
(0.270935 -5.61896e-08 0)
(0.270935 -9.28906e-09 0)
(0.270935 1.74318e-08 0)
(0.270935 2.86785e-08 0)
(0.270935 3.10728e-08 0)
(0.270935 2.8553e-08 0)
(0.270934 2.46808e-08 0)
(0.270934 2.16528e-08 0)
(0.270934 2.11837e-08 0)
(0.270934 2.54091e-08 0)
(0.270934 3.71825e-08 0)
(0.270934 6.05582e-08 0)
(0.270934 9.95159e-08 0)
(0.270934 1.52576e-07 0)
(0.270934 2.04449e-07 0)
(0.270935 1.78604e-07 0)
(0.320442 -1.53638e-07 0)
(0.320442 -2.02128e-07 0)
(0.320442 -1.51393e-07 0)
(0.320442 -8.08018e-08 0)
(0.320442 -2.15699e-08 0)
(0.320442 1.82009e-08 0)
(0.320441 3.91343e-08 0)
(0.320441 4.56788e-08 0)
(0.320441 4.40771e-08 0)
(0.320441 3.83543e-08 0)
(0.320441 3.19473e-08 0)
(0.320441 2.69584e-08 0)
(0.320441 2.5005e-08 0)
(0.320441 2.80553e-08 0)
(0.320441 3.86272e-08 0)
(0.320441 6.01782e-08 0)
(0.320441 9.58579e-08 0)
(0.320441 1.43133e-07 0)
(0.320441 1.8666e-07 0)
(0.320442 1.61705e-07 0)
(0.370062 -7.98162e-08 0)
(0.370061 -1.09842e-07 0)
(0.370061 -6.7261e-08 0)
(0.370061 -1.28164e-08 0)
(0.370061 3.03179e-08 0)
(0.370061 5.65486e-08 0)
(0.370061 6.69653e-08 0)
(0.370061 6.57379e-08 0)
(0.370061 5.83497e-08 0)
(0.370061 4.84268e-08 0)
(0.37006 3.89269e-08 0)
(0.37006 3.1583e-08 0)
(0.37006 2.7663e-08 0)
(0.37006 2.87016e-08 0)
(0.37006 3.65404e-08 0)
(0.37006 5.36242e-08 0)
(0.370061 8.20074e-08 0)
(0.370061 1.18546e-07 0)
(0.370061 1.50041e-07 0)
(0.370061 1.2896e-07 0)
(0.419803 1.05127e-08 0)
(0.419802 4.42082e-09 0)
(0.419802 3.89383e-08 0)
(0.419802 7.30901e-08 0)
(0.419802 9.45937e-08 0)
(0.419802 1.02313e-07 0)
(0.419801 9.85425e-08 0)
(0.419801 8.71861e-08 0)
(0.419801 7.27018e-08 0)
(0.419801 5.79191e-08 0)
(0.419801 4.50191e-08 0)
(0.419801 3.51321e-08 0)
(0.419801 2.89646e-08 0)
(0.419801 2.74124e-08 0)
(0.419801 3.14016e-08 0)
(0.419801 4.21039e-08 0)
(0.419801 6.03427e-08 0)
(0.419801 8.2788e-08 0)
(0.419801 9.98138e-08 0)
(0.419802 8.45696e-08 0)
(0.469672 1.0876e-07 0)
(0.469671 1.29552e-07 0)
(0.469671 1.5625e-07 0)
(0.469671 1.67761e-07 0)
(0.469671 1.6435e-07 0)
(0.46967 1.50575e-07 0)
(0.46967 1.30504e-07 0)
(0.46967 1.07771e-07 0)
(0.46967 8.56406e-08 0)
(0.46967 6.58585e-08 0)
(0.46967 4.96133e-08 0)
(0.46967 3.72738e-08 0)
(0.46967 2.88488e-08 0)
(0.46967 2.44794e-08 0)
(0.46967 2.40554e-08 0)
(0.46967 2.73708e-08 0)
(0.46967 3.39759e-08 0)
(0.46967 4.06407e-08 0)
(0.46967 4.19258e-08 0)
(0.469671 3.34351e-08 0)
(0.519672 2.05738e-07 0)
(0.519671 2.5357e-07 0)
(0.519671 2.724e-07 0)
(0.519671 2.60578e-07 0)
(0.519671 2.31402e-07 0)
(0.519671 1.95483e-07 0)
(0.519671 1.58894e-07 0)
(0.519671 1.24923e-07 0)
(0.519671 9.55421e-08 0)
(0.51967 7.12548e-08 0)
(0.51967 5.21494e-08 0)
(0.51967 3.77688e-08 0)
(0.51967 2.73802e-08 0)
(0.51967 2.03561e-08 0)
(0.519671 1.5553e-08 0)
(0.519671 1.14272e-08 0)
(0.519671 6.28416e-09 0)
(0.519671 -2.90217e-09 0)
(0.519671 -1.75212e-08 0)
(0.519671 -1.92911e-08 0)
(0.569803 2.92255e-07 0)
(0.569802 3.64346e-07 0)
(0.569802 3.74727e-07 0)
(0.569802 3.40472e-07 0)
(0.569802 2.87187e-07 0)
(0.569802 2.30973e-07 0)
(0.569802 1.79689e-07 0)
(0.569802 1.36111e-07 0)
(0.569802 1.00884e-07 0)
(0.569802 7.32436e-08 0)
(0.569802 5.21962e-08 0)
(0.569802 3.64982e-08 0)
(0.569802 2.47284e-08 0)
(0.569802 1.55779e-08 0)
(0.569802 6.99029e-09 0)
(0.569802 -3.74918e-09 0)
(0.569802 -1.94845e-08 0)
(0.569802 -4.31067e-08 0)
(0.569802 -7.27107e-08 0)
(0.569802 -6.85831e-08 0)
(0.620062 3.59705e-07 0)
(0.620062 4.50341e-07 0)
(0.620062 4.51172e-07 0)
(0.620062 3.97024e-07 0)
(0.620061 3.23786e-07 0)
(0.620061 2.51592e-07 0)
(0.620061 1.89407e-07 0)
(0.620061 1.39264e-07 0)
(0.620061 1.0052e-07 0)
(0.620061 7.12533e-08 0)
(0.620061 4.95411e-08 0)
(0.620061 3.34957e-08 0)
(0.620061 2.11511e-08 0)
(0.620061 1.06924e-08 0)
(0.620062 -6.26938e-10 0)
(0.620062 -1.64226e-08 0)
(0.620062 -4.05163e-08 0)
(0.620062 -7.58529e-08 0)
(0.620062 -1.1845e-07 0)
(0.620062 -1.09859e-07 0)
(0.670443 4.00673e-07 0)
(0.670442 5.01417e-07 0)
(0.670442 4.91411e-07 0)
(0.670442 4.21706e-07 0)
(0.670442 3.35056e-07 0)
(0.670442 2.53384e-07 0)
(0.670442 1.85749e-07 0)
(0.670443 1.33201e-07 0)
(0.670443 9.39468e-08 0)
(0.670443 6.51654e-08 0)
(0.670443 4.42743e-08 0)
(0.670443 2.89786e-08 0)
(0.670443 1.69821e-08 0)
(0.670443 6.2046e-09 0)
(0.670443 -6.48913e-09 0)
(0.670443 -2.5269e-08 0)
(0.670443 -5.46694e-08 0)
(0.670443 -9.79173e-08 0)
(0.670443 -1.50456e-07 0)
(0.670443 -1.39267e-07 0)
(0.720936 4.09562e-07 0)
(0.720935 5.09779e-07 0)
(0.720936 4.8816e-07 0)
(0.720936 4.09227e-07 0)
(0.720936 3.17758e-07 0)
(0.720936 2.34731e-07 0)
(0.720936 1.6816e-07 0)
(0.720936 1.17972e-07 0)
(0.720936 8.15033e-08 0)
(0.720936 5.54141e-08 0)
(0.720936 3.68316e-08 0)
(0.720936 2.3351e-08 0)
(0.720936 1.26082e-08 0)
(0.720936 2.53143e-09 0)
(0.720936 -1.00589e-08 0)
(0.720936 -2.94973e-08 0)
(0.720936 -6.06563e-08 0)
(0.720936 -1.07196e-07 0)
(0.720936 -1.65592e-07 0)
(0.720936 -1.53922e-07 0)
(0.771528 3.8324e-07 0)
(0.771528 4.71074e-07 0)
(0.771529 4.38667e-07 0)
(0.771529 3.58902e-07 0)
(0.771529 2.72582e-07 0)
(0.771529 1.96994e-07 0)
(0.771529 1.38182e-07 0)
(0.771529 9.50284e-08 0)
(0.771529 6.44242e-08 0)
(0.771529 4.29872e-08 0)
(0.771529 2.79676e-08 0)
(0.771529 1.717e-08 0)
(0.771529 8.4324e-09 0)
(0.771529 -4.17936e-11 0)
(0.771529 -1.11273e-08 0)
(0.771529 -2.89341e-08 0)
(0.771529 -5.81826e-08 0)
(0.771529 -1.02886e-07 0)
(0.771529 -1.62048e-07 0)
(0.771529 -1.52102e-07 0)
(0.822207 3.21394e-07 0)
(0.822207 3.8541e-07 0)
(0.822207 3.45969e-07 0)
(0.822207 2.75522e-07 0)
(0.822207 2.04578e-07 0)
(0.822208 1.44662e-07 0)
(0.822208 9.94386e-08 0)
(0.822208 6.71198e-08 0)
(0.822208 4.47145e-08 0)
(0.822208 2.93052e-08 0)
(0.822208 1.86572e-08 0)
(0.822208 1.10656e-08 0)
(0.822208 4.82121e-09 0)
(0.822208 -1.374e-09 0)
(0.822208 -9.8018e-09 0)
(0.822208 -2.39942e-08 0)
(0.822208 -4.79255e-08 0)
(0.822208 -8.54763e-08 0)
(0.822208 -1.39272e-07 0)
(0.822208 -1.3323e-07 0)
(0.872954 2.2971e-07 0)
(0.872954 2.62925e-07 0)
(0.872954 2.24124e-07 0)
(0.872955 1.73107e-07 0)
(0.872955 1.25476e-07 0)
(0.872955 8.66769e-08 0)
(0.872955 5.83766e-08 0)
(0.872955 3.87409e-08 0)
(0.872955 2.53939e-08 0)
(0.872955 1.62771e-08 0)
(0.872955 1.00813e-08 0)
(0.872955 5.8429e-09 0)
(0.872955 2.21826e-09 0)
(0.872955 -1.62869e-09 0)
(0.872955 -6.86611e-09 0)
(0.872955 -1.60448e-08 0)
(0.872955 -3.21401e-08 0)
(0.872955 -5.8178e-08 0)
(0.872955 -9.99643e-08 0)
(0.872955 -9.89889e-08 0)
(0.923752 1.21957e-07 0)
(0.923752 1.27171e-07 0)
(0.923752 9.88906e-08 0)
(0.923752 7.2958e-08 0)
(0.923752 5.11943e-08 0)
(0.923753 3.42537e-08 0)
(0.923753 2.24502e-08 0)
(0.923753 1.4565e-08 0)
(0.923753 9.35238e-09 0)
(0.923753 5.83721e-09 0)
(0.923753 3.48694e-09 0)
(0.923753 1.92242e-09 0)
(0.923753 5.62054e-10 0)
(0.923753 -8.72804e-10 0)
(0.923753 -2.9586e-09 0)
(0.923753 -6.88314e-09 0)
(0.923753 -1.40977e-08 0)
(0.923753 -2.63983e-08 0)
(0.923753 -5.0588e-08 0)
(0.923752 -5.43156e-08 0)
(0.97458 3.50818e-08 0)
(0.97458 3.33744e-08 0)
(0.974581 2.30541e-08 0)
(0.974581 1.60026e-08 0)
(0.974581 1.07112e-08 0)
(0.974581 6.78245e-09 0)
(0.974581 4.27895e-09 0)
(0.974581 2.75982e-09 0)
(0.974581 1.75994e-09 0)
(0.974581 9.91839e-10 0)
(0.974581 4.99746e-10 0)
(0.974581 3.19731e-10 0)
(0.974581 7.68581e-11 0)
(0.974581 -3.34509e-10 0)
(0.974581 -7.97358e-10 0)
(0.974581 -1.75307e-09 0)
(0.974581 -3.61076e-09 0)
(0.974581 -6.78248e-09 0)
(0.974581 -1.4308e-08 0)
(0.974581 -1.59497e-08 0)
)
;

boundaryField
{
    top
    {
        type            fixedValue;
        value           uniform (1 0 0);
    }
    bottom
    {
        type            fixedValue;
        value           uniform (0 0 0);
    }
    inlet
    {
        type            zeroGradient;
    }
    outlet
    {
        type            zeroGradient;
    }
    frontAndBack
    {
        type            empty;
    }
}


// ************************************************************************* //
