/*--------------------------------*- C++ -*----------------------------------*\
  =========                 |
  \\      /  F ield         | OpenFOAM: The Open Source CFD Toolbox
   \\    /   O peration     | Website:  https://openfoam.org
    \\  /    A nd           | Version:  9
     \\/     M anipulation  |
\*---------------------------------------------------------------------------*/
FoamFile
{
    format      ascii;
    class       volScalarField;
    location    "0.7";
    object      p;
}
// * * * * * * * * * * * * * * * * * * * * * * * * * * * * * * * * * * * * * //

dimensions      [0 2 -2 0 0 0 0];

internalField   nonuniform List<scalar> 
400
(
1.06514e-06
1.75591e-06
1.54105e-06
1.36032e-06
1.19264e-06
1.02833e-06
8.78875e-07
7.38031e-07
5.99665e-07
4.64216e-07
3.26828e-07
1.89533e-07
5.39467e-08
-8.80323e-08
-2.43225e-07
-4.10536e-07
-5.80755e-07
-7.33439e-07
-8.88532e-07
-5.76315e-07
1.00242e-06
1.65579e-06
1.43875e-06
1.30803e-06
1.16984e-06
1.02122e-06
8.78976e-07
7.41793e-07
6.04436e-07
4.6846e-07
3.31908e-07
1.95613e-07
6.0117e-08
-8.1234e-08
-2.32752e-07
-3.91743e-07
-5.47755e-07
-6.7639e-07
-8.34911e-07
-5.42603e-07
1.00188e-06
1.65256e-06
1.37791e-06
1.27246e-06
1.15367e-06
1.01594e-06
8.79156e-07
7.44796e-07
6.08372e-07
4.72243e-07
3.36751e-07
2.01261e-07
6.52315e-08
-7.59306e-08
-2.2396e-07
-3.7586e-07
-5.22586e-07
-6.3942e-07
-8.36686e-07
-5.48785e-07
1.03227e-06
1.71839e-06
1.35302e-06
1.25267e-06
1.14411e-06
1.01294e-06
8.79434e-07
7.46617e-07
6.11619e-07
4.7604e-07
3.41091e-07
2.05537e-07
6.86944e-08
-7.20357e-08
-2.16722e-07
-3.63243e-07
-5.05632e-07
-6.22129e-07
-8.75812e-07
-5.7079e-07
1.06401e-06
1.80708e-06
1.34812e-06
1.24307e-06
1.13908e-06
1.01126e-06
8.80126e-07
7.4805e-07
6.14688e-07
4.79946e-07
3.44487e-07
2.07977e-07
7.06733e-08
-6.88473e-08
-2.10278e-07
-3.52836e-07
-4.93701e-07
-6.14648e-07
-9.25121e-07
-5.90821e-07
1.09388e-06
1.90204e-06
1.35436e-06
1.2399e-06
1.13715e-06
1.0101e-06
8.81231e-07
7.50152e-07
6.17577e-07
4.82904e-07
3.46546e-07
2.09143e-07
7.18576e-08
-6.60374e-08
-2.04421e-07
-3.43899e-07
-4.84527e-07
-6.10984e-07
-9.72789e-07
-6.06032e-07
1.12191e-06
1.99399e-06
1.36727e-06
1.2408e-06
1.13777e-06
1.01014e-06
8.82892e-07
7.52723e-07
6.2e-07
4.84606e-07
3.47362e-07
2.09502e-07
7.2658e-08
-6.34897e-08
-1.99154e-07
-3.36153e-07
-4.77081e-07
-6.0851e-07
-1.01255e-06
-6.16154e-07
1.14734e-06
2.07447e-06
1.38293e-06
1.2442e-06
1.14047e-06
1.01183e-06
8.85249e-07
7.55412e-07
6.2186e-07
4.85319e-07
3.47384e-07
2.09544e-07
7.34776e-08
-6.0927e-08
-1.94211e-07
-3.29106e-07
-4.7031e-07
-6.05254e-07
-1.04021e-06
-6.2116e-07
1.16926e-06
2.13675e-06
1.39836e-06
1.24935e-06
1.14499e-06
1.01525e-06
8.88402e-07
7.58132e-07
6.23324e-07
4.85539e-07
3.47178e-07
2.09746e-07
7.46885e-08
-5.80453e-08
-1.89265e-07
-3.22275e-07
-4.63342e-07
-5.99804e-07
-1.05312e-06
-6.21124e-07
1.18706e-06
2.17642e-06
1.41171e-06
1.25604e-06
1.15129e-06
1.02038e-06
8.92451e-07
7.61035e-07
6.24747e-07
4.8582e-07
3.47288e-07
2.10512e-07
7.65515e-08
-5.46602e-08
-1.84122e-07
-3.15367e-07
-4.55643e-07
-5.91403e-07
-1.05013e-06
-6.16282e-07
1.20019e-06
2.1911e-06
1.42221e-06
1.26439e-06
1.1595e-06
1.02727e-06
8.97552e-07
7.64406e-07
6.26553e-07
4.86686e-07
3.48176e-07
2.12134e-07
7.91982e-08
-5.07377e-08
-1.78765e-07
-3.08311e-07
-4.47026e-07
-5.79878e-07
-1.03131e-06
-6.06945e-07
1.20809e-06
2.18021e-06
1.42999e-06
1.27487e-06
1.17e-06
1.03612e-06
9.03971e-07
7.68598e-07
6.29153e-07
4.88555e-07
3.50175e-07
2.14788e-07
8.26445e-08
-4.63683e-08
-1.73323e-07
-3.01227e-07
-4.37595e-07
-5.65557e-07
-9.97761e-07
-5.93473e-07
1.21013e-06
2.14499e-06
1.43615e-06
1.28838e-06
1.1834e-06
1.0474e-06
9.12124e-07
7.74021e-07
6.32915e-07
4.91724e-07
3.53473e-07
2.18519e-07
8.67974e-08
-4.17364e-08
-1.68031e-07
-2.9438e-07
-4.27712e-07
-5.49248e-07
-9.51598e-07
-5.76314e-07
1.20575e-06
2.08881e-06
1.44288e-06
1.30633e-06
1.20064e-06
1.06182e-06
9.22597e-07
7.81174e-07
6.38202e-07
4.96396e-07
3.5812e-07
2.23234e-07
9.1456e-08
-3.70876e-08
-1.63174e-07
-2.88155e-07
-4.18007e-07
-5.32281e-07
-8.95991e-07
-5.56102e-07
1.19469e-06
2.01759e-06
1.45355e-06
1.33062e-06
1.22291e-06
1.08018e-06
9.36027e-07
7.90583e-07
6.45364e-07
5.02693e-07
3.64042e-07
2.28707e-07
9.63158e-08
-3.26911e-08
-1.59017e-07
-2.83031e-07
-4.09415e-07
-5.16538e-07
-8.35236e-07
-5.33747e-07
1.17698e-06
1.93998e-06
1.4724e-06
1.36316e-06
1.25122e-06
1.10299e-06
9.52752e-07
8.0255e-07
6.54579e-07
5.1057e-07
3.70993e-07
2.34574e-07
1.00992e-07
-2.88131e-08
-1.55748e-07
-2.79551e-07
-4.03191e-07
-5.04346e-07
-7.74531e-07
-5.10317e-07
1.15315e-06
1.86806e-06
1.50458e-06
1.40551e-06
1.28597e-06
1.1301e-06
9.72487e-07
8.16883e-07
6.65646e-07
5.19646e-07
3.78445e-07
2.40357e-07
1.05129e-07
-2.57116e-08
-1.53533e-07
-2.78277e-07
-4.00844e-07
-4.98367e-07
-7.19718e-07
-4.86749e-07
1.13102e-06
1.82651e-06
1.56208e-06
1.46227e-06
1.32907e-06
1.16211e-06
9.95314e-07
8.33561e-07
6.78408e-07
5.29439e-07
3.85744e-07
2.45745e-07
1.08763e-07
-2.36645e-08
-1.53011e-07
-2.80155e-07
-4.04561e-07
-5.03415e-07
-6.80959e-07
-4.66413e-07
1.13726e-06
1.85968e-06
1.66736e-06
1.54259e-06
1.38486e-06
1.20112e-06
1.02218e-06
8.52772e-07
6.92611e-07
5.39622e-07
3.92654e-07
2.50567e-07
1.1185e-07
-2.27992e-08
-1.54829e-07
-2.86377e-07
-4.1699e-07
-5.26757e-07
-6.77365e-07
-4.62158e-07
1.21628e-06
1.99698e-06
1.81871e-06
1.64424e-06
1.45137e-06
1.2456e-06
1.052e-06
8.7349e-07
7.07353e-07
5.49749e-07
3.9917e-07
2.54808e-07
1.14265e-07
-2.29972e-08
-1.58737e-07
-2.96837e-07
-4.38543e-07
-5.69524e-07
-7.23761e-07
-4.93984e-07
)
;

boundaryField
{
    top
    {
        type            zeroGradient;
    }
    bottom
    {
        type            zeroGradient;
    }
    inlet
    {
        type            fixedValue;
        value           uniform 0;
    }
    outlet
    {
        type            fixedValue;
        value           uniform 0;
    }
    frontAndBack
    {
        type            empty;
    }
}


// ************************************************************************* //
