/*--------------------------------*- C++ -*----------------------------------*\
  =========                 |
  \\      /  F ield         | OpenFOAM: The Open Source CFD Toolbox
   \\    /   O peration     | Website:  https://openfoam.org
    \\  /    A nd           | Version:  9
     \\/     M anipulation  |
\*---------------------------------------------------------------------------*/
FoamFile
{
    format      ascii;
    class       surfaceScalarField;
    location    "0.7";
    object      phi;
}
// * * * * * * * * * * * * * * * * * * * * * * * * * * * * * * * * * * * * * //

dimensions      [0 3 -1 0 0 0 0];

internalField   nonuniform List<scalar> 
760
(
1.24644e-06
-6.32937e-12
1.24645e-06
-5.79591e-12
1.24645e-06
-2.41557e-12
1.24645e-06
-1.05615e-12
1.24645e-06
-4.37168e-13
1.24645e-06
-9.2055e-14
1.24645e-06
5.05943e-14
1.24645e-06
1.07625e-13
1.24645e-06
1.21767e-13
1.24645e-06
9.75873e-14
1.24645e-06
9.59624e-14
1.24645e-06
9.76799e-14
1.24645e-06
8.95711e-14
1.24645e-06
1.05286e-13
1.24645e-06
1.79121e-13
1.24645e-06
3.57852e-13
1.24645e-06
7.2556e-13
1.24645e-06
1.43808e-12
1.24644e-06
3.33864e-12
3.87448e-12
3.73943e-06
-1.46384e-11
3.73943e-06
-1.48286e-11
3.73944e-06
-7.56834e-12
3.73944e-06
-3.53202e-12
3.73944e-06
-1.46579e-12
3.73944e-06
-3.26023e-13
3.73944e-06
1.84407e-13
3.73944e-06
3.80606e-13
3.73944e-06
4.36151e-13
3.73944e-06
3.90657e-13
3.73944e-06
3.57929e-13
3.73944e-06
3.40597e-13
3.73944e-06
3.46185e-13
3.73944e-06
4.3598e-13
3.73944e-06
6.93004e-13
3.73944e-06
1.27156e-12
3.73944e-06
2.43629e-12
3.73943e-06
4.57247e-12
3.73943e-06
8.81472e-12
9.18578e-12
6.23267e-06
-2.11302e-11
6.23268e-06
-2.25124e-11
6.23269e-06
-1.25744e-11
6.23269e-06
-6.05822e-12
6.23269e-06
-2.45559e-12
6.23269e-06
-4.52076e-13
6.23269e-06
4.82869e-13
6.23269e-06
8.31465e-13
6.23269e-06
9.09552e-13
6.23269e-06
8.23535e-13
6.23269e-06
7.37258e-13
6.23269e-06
6.83808e-13
6.23269e-06
6.98878e-13
6.23269e-06
8.74595e-13
6.23269e-06
1.35089e-12
6.23268e-06
2.39164e-12
6.23268e-06
4.42297e-12
6.23268e-06
7.96868e-12
6.23267e-06
1.38417e-11
1.35854e-11
8.72635e-06
-2.44425e-11
8.72635e-06
-2.67187e-11
8.72636e-06
-1.57673e-11
8.72636e-06
-7.64308e-12
8.72636e-06
-2.89132e-12
8.72636e-06
-2.22606e-13
8.72636e-06
1.03307e-12
8.72636e-06
1.46632e-12
8.72636e-06
1.52143e-12
8.72636e-06
1.36652e-12
8.72636e-06
1.1979e-12
8.72635e-06
1.08459e-12
8.72635e-06
1.08944e-12
8.72635e-06
1.33055e-12
8.72635e-06
1.9928e-12
8.72635e-06
3.41428e-12
8.72635e-06
6.10935e-12
8.72635e-06
1.05978e-11
8.72634e-06
1.71728e-11
1.6328e-11
1.12206e-05
-2.45532e-11
1.12206e-05
-2.72138e-11
1.12206e-05
-1.63949e-11
1.12206e-05
-7.69021e-12
1.12206e-05
-2.41971e-12
1.12206e-05
5.35568e-13
1.12206e-05
1.89738e-12
1.12206e-05
2.29769e-12
1.12206e-05
2.25291e-12
1.12206e-05
1.98446e-12
1.12206e-05
1.70437e-12
1.12206e-05
1.50616e-12
1.12206e-05
1.4716e-12
1.12206e-05
1.73356e-12
1.12206e-05
2.49756e-12
1.12206e-05
4.12547e-12
1.12206e-05
7.13831e-12
1.12206e-05
1.19476e-11
1.12206e-05
1.84292e-11
1.72028e-11
1.37156e-05
-2.15897e-11
1.37156e-05
-2.40717e-11
1.37156e-05
-1.423e-11
1.37156e-05
-5.94109e-12
1.37156e-05
-8.66729e-13
1.37156e-05
1.91102e-12
1.37156e-05
3.09644e-12
1.37156e-05
3.30938e-12
1.37156e-05
3.0738e-12
1.37156e-05
2.64001e-12
1.37156e-05
2.21881e-12
1.37156e-05
1.91107e-12
1.37156e-05
1.80382e-12
1.37156e-05
2.02913e-12
1.37156e-05
2.78489e-12
1.37156e-05
4.40596e-12
1.37156e-05
7.35181e-12
1.37156e-05
1.18738e-11
1.37156e-05
1.75853e-11
1.62138e-11
1.62114e-05
-1.59418e-11
1.62114e-05
-1.77221e-11
1.62114e-05
-9.45599e-12
1.62114e-05
-2.44166e-12
1.62114e-05
1.74947e-12
1.62114e-05
3.88027e-12
1.62114e-05
4.59296e-12
1.62114e-05
4.45291e-12
1.62114e-05
3.9373e-12
1.62114e-05
3.29024e-12
1.62114e-05
2.70228e-12
1.62114e-05
2.26455e-12
1.62114e-05
2.05403e-12
1.62114e-05
2.18506e-12
1.62114e-05
2.82149e-12
1.62114e-05
4.22893e-12
1.62114e-05
6.75778e-12
1.62114e-05
1.04868e-11
1.62114e-05
1.49162e-11
1.36023e-11
1.87082e-05
-8.1949e-12
1.87082e-05
-8.84691e-12
1.87082e-05
-2.56109e-12
1.87082e-05
2.5046e-12
1.87082e-05
5.23193e-12
1.87082e-05
6.3058e-12
1.87082e-05
6.28557e-12
1.87082e-05
5.64694e-12
1.87082e-05
4.77954e-12
1.87082e-05
3.88565e-12
1.87082e-05
3.11596e-12
1.87082e-05
2.53704e-12
1.87082e-05
2.20192e-12
1.87082e-05
2.19224e-12
1.87082e-05
2.61702e-12
1.87082e-05
3.64312e-12
1.87082e-05
5.48404e-12
1.87082e-05
8.05617e-12
1.87082e-05
1.08568e-11
9.74214e-12
2.1206e-05
9.27703e-13
2.1206e-05
1.69872e-12
2.1206e-05
5.7463e-12
2.1206e-05
8.3909e-12
2.1206e-05
9.2339e-12
2.1206e-05
8.95175e-12
2.1206e-05
8.01521e-12
2.1206e-05
6.78122e-12
2.1206e-05
5.52326e-12
2.1206e-05
4.37252e-12
2.1206e-05
3.42312e-12
2.1206e-05
2.70573e-12
2.1206e-05
2.23907e-12
2.1206e-05
2.06159e-12
2.1206e-05
2.21456e-12
2.1206e-05
2.75048e-12
2.1206e-05
3.73397e-12
2.1206e-05
4.93855e-12
2.1206e-05
5.91607e-12
5.0765e-12
2.37049e-05
1.06121e-11
2.37049e-05
1.29448e-11
2.37049e-05
1.46094e-11
2.37049e-05
1.45671e-11
2.37049e-05
1.32998e-11
2.37049e-05
1.15119e-11
2.37049e-05
9.58238e-12
2.37049e-05
7.72696e-12
2.37049e-05
6.08522e-12
2.37049e-05
4.69803e-12
2.37049e-05
3.59213e-12
2.37049e-05
2.75575e-12
2.37049e-05
2.16789e-12
2.37049e-05
1.81928e-12
2.37049e-05
1.67915e-12
2.37049e-05
1.68333e-12
2.37049e-05
1.74788e-12
2.37049e-05
1.52353e-12
2.37049e-05
6.22887e-13
7.53956e-14
2.62049e-05
1.9998e-11
2.62049e-05
2.38563e-11
2.62049e-05
2.30875e-11
2.62049e-05
2.03042e-11
2.62049e-05
1.69167e-11
2.62049e-05
1.36471e-11
2.62049e-05
1.07729e-11
2.62049e-05
8.35325e-12
2.62049e-05
6.38694e-12
2.62049e-05
4.81704e-12
2.62049e-05
3.60016e-12
2.62049e-05
2.68135e-12
2.62049e-05
1.99999e-12
2.62049e-05
1.50115e-12
2.62049e-05
1.08622e-12
2.62049e-05
5.83699e-13
2.62049e-05
-2.28527e-13
2.62049e-05
-1.80554e-12
2.62049e-05
-4.51055e-12
-4.79643e-12
2.8706e-05
2.82223e-11
2.8706e-05
3.33812e-11
2.8706e-05
3.02207e-11
2.8706e-05
2.48649e-11
2.8706e-05
1.95743e-11
2.8706e-05
1.50309e-11
2.8706e-05
1.13897e-11
2.8706e-05
8.54768e-12
2.8706e-05
6.36757e-12
2.8706e-05
4.6998e-12
2.8706e-05
3.43711e-12
2.8706e-05
2.48685e-12
2.8706e-05
1.75442e-12
2.8706e-05
1.14737e-12
2.8706e-05
5.11094e-13
2.8706e-05
-4.14116e-13
2.8706e-05
-1.96907e-12
2.8706e-05
-4.70051e-12
2.8706e-05
-9.01526e-12
-9.10511e-12
3.12082e-05
3.44652e-11
3.12082e-05
4.05037e-11
3.12082e-05
3.51036e-11
3.12082e-05
2.75827e-11
3.12082e-05
2.08343e-11
3.12082e-05
1.54006e-11
3.12082e-05
1.12882e-11
3.12082e-05
8.23861e-12
3.12082e-05
5.99724e-12
3.12082e-05
4.33939e-12
3.12082e-05
3.10914e-12
3.12082e-05
2.18735e-12
3.12082e-05
1.45574e-12
3.12082e-05
7.97447e-13
3.12082e-05
2.00923e-14
3.12082e-05
-1.19771e-12
3.12082e-05
-3.28688e-12
3.12082e-05
-6.87073e-12
3.12082e-05
-1.24858e-11
-1.24691e-11
3.37114e-05
3.8002e-11
3.37114e-05
4.43116e-11
3.37114e-05
3.69772e-11
3.37114e-05
2.79552e-11
3.37114e-05
2.04058e-11
3.37114e-05
1.46106e-11
3.37114e-05
1.04102e-11
3.37114e-05
7.41575e-12
3.37114e-05
5.28844e-12
3.37114e-05
3.75752e-12
3.37114e-05
2.64087e-12
3.37114e-05
1.80854e-12
3.37114e-05
1.13199e-12
3.37114e-05
4.85901e-13
3.37114e-05
-3.36902e-13
3.37114e-05
-1.68784e-12
3.37114e-05
-4.05053e-12
3.37114e-05
-8.10208e-12
3.37114e-05
-1.45977e-11
-1.45778e-11
3.62156e-05
3.82682e-11
3.62156e-05
4.40919e-11
3.62156e-05
3.53499e-11
3.62156e-05
2.5751e-11
3.62156e-05
1.82226e-11
3.62156e-05
1.26814e-11
3.62156e-05
8.8125e-12
3.62156e-05
6.14487e-12
3.62156e-05
4.30291e-12
3.62156e-05
3.00691e-12
3.62156e-05
2.07538e-12
3.62156e-05
1.3854e-12
3.62156e-05
8.12395e-13
3.62156e-05
2.38645e-13
3.62156e-05
-5.32235e-13
3.62156e-05
-1.84721e-12
3.62156e-05
-4.1977e-12
3.62156e-05
-8.27618e-12
3.62156e-05
-1.5127e-11
-1.52107e-11
3.87206e-05
3.49552e-11
3.87206e-05
3.94813e-11
3.87206e-05
3.01609e-11
3.87206e-05
2.1129e-11
3.87206e-05
1.45133e-11
3.87206e-05
9.83473e-12
3.87206e-05
6.68156e-12
3.87206e-05
4.57207e-12
3.87206e-05
3.15094e-12
3.87206e-05
2.16892e-12
3.87206e-05
1.47134e-12
3.87206e-05
9.59131e-13
3.87206e-05
5.24548e-13
3.87206e-05
7.02826e-14
3.87206e-05
-5.64564e-13
3.87206e-05
-1.68703e-12
3.87206e-05
-3.74719e-12
3.87206e-05
-7.3927e-12
3.87206e-05
-1.39769e-11
-1.42592e-11
4.12264e-05
2.81668e-11
4.12264e-05
3.07127e-11
4.12264e-05
2.19923e-11
4.12264e-05
1.47538e-11
4.12264e-05
9.84422e-12
4.12264e-05
6.50094e-12
4.12264e-05
4.32619e-12
4.12264e-05
2.91266e-12
4.12264e-05
1.98085e-12
4.12264e-05
1.34496e-12
4.12264e-05
8.96753e-13
4.12264e-05
5.72435e-13
4.12264e-05
2.90772e-13
4.12264e-05
-1.75661e-14
4.12264e-05
-4.60259e-13
4.12264e-05
-1.27129e-12
4.12264e-05
-2.81001e-12
4.12264e-05
-5.59845e-12
4.12264e-05
-1.12186e-11
-1.17606e-11
4.37327e-05
1.86441e-11
4.37327e-05
1.90166e-11
4.37327e-05
1.23196e-11
4.37327e-05
7.86845e-12
4.37327e-05
5.10563e-12
4.37327e-05
3.28208e-12
4.37327e-05
2.14101e-12
4.37327e-05
1.42165e-12
4.37327e-05
9.57156e-13
4.37327e-05
6.41713e-13
4.37327e-05
4.19918e-13
4.37327e-05
2.63284e-13
4.37327e-05
1.22918e-13
4.37327e-05
-3.70571e-14
4.37327e-05
-2.70177e-13
4.37327e-05
-7.1719e-13
4.37327e-05
-1.60162e-12
4.37327e-05
-3.23098e-12
4.37327e-05
-7.15485e-12
-7.93197e-12
4.62394e-05
7.70954e-12
4.62394e-05
7.01694e-12
4.62394e-05
3.81775e-12
4.62394e-05
2.27083e-12
4.62395e-05
1.43336e-12
4.62395e-05
8.85082e-13
4.62395e-05
5.61256e-13
4.62395e-05
3.67563e-13
4.62395e-05
2.46094e-13
4.62395e-05
1.61237e-13
4.62395e-05
1.01281e-13
4.62395e-05
6.39317e-14
4.62395e-05
2.77747e-14
4.62395e-05
-1.72986e-14
4.62395e-05
-7.98405e-14
4.62395e-05
-2.08657e-13
4.62395e-05
-4.84321e-13
4.62395e-05
-9.91101e-13
4.62395e-05
-2.69228e-12
-3.34663e-12
4.87464e-05
4.87464e-05
4.87465e-05
4.87465e-05
4.87465e-05
4.87465e-05
4.87465e-05
4.87465e-05
4.87465e-05
4.87465e-05
4.87465e-05
4.87465e-05
4.87465e-05
4.87465e-05
4.87465e-05
4.87465e-05
4.87465e-05
4.87465e-05
4.87465e-05
)
;

boundaryField
{
    top
    {
        type            calculated;
        value           uniform 0;
    }
    bottom
    {
        type            calculated;
        value           uniform 0;
    }
    inlet
    {
        type            calculated;
        value           nonuniform List<scalar> 
20
(
-1.24644e-06
-3.73942e-06
-6.23267e-06
-8.72635e-06
-1.12206e-05
-1.37156e-05
-1.62114e-05
-1.87082e-05
-2.1206e-05
-2.37049e-05
-2.62049e-05
-2.8706e-05
-3.12082e-05
-3.37114e-05
-3.62156e-05
-3.87206e-05
-4.12263e-05
-4.37327e-05
-4.62394e-05
-4.87464e-05
)
;
    }
    outlet
    {
        type            calculated;
        value           nonuniform List<scalar> 
20
(
1.24644e-06
3.73942e-06
6.23267e-06
8.72634e-06
1.12206e-05
1.37156e-05
1.62114e-05
1.87082e-05
2.1206e-05
2.37049e-05
2.62049e-05
2.8706e-05
3.12082e-05
3.37114e-05
3.62156e-05
3.87206e-05
4.12264e-05
4.37327e-05
4.62394e-05
4.87464e-05
)
;
    }
    frontAndBack
    {
        type            empty;
        value           nonuniform List<scalar> 0();
    }
}


// ************************************************************************* //
