/*--------------------------------*- C++ -*----------------------------------*\
  =========                 |
  \\      /  F ield         | OpenFOAM: The Open Source CFD Toolbox
   \\    /   O peration     | Website:  https://openfoam.org
    \\  /    A nd           | Version:  9
     \\/     M anipulation  |
\*---------------------------------------------------------------------------*/
FoamFile
{
    format      ascii;
    class       volVectorField;
    location    "0.7";
    object      U;
}
// * * * * * * * * * * * * * * * * * * * * * * * * * * * * * * * * * * * * * //

dimensions      [0 1 -1 0 0 0 0];

internalField   nonuniform List<vector> 
400
(
(0.0249288 -3.26927e-08 0)
(0.0249289 -3.01195e-08 0)
(0.024929 -1.16281e-08 0)
(0.024929 -4.8489e-09 0)
(0.024929 -2.01422e-09 0)
(0.024929 -4.70319e-10 0)
(0.024929 9.02765e-11 0)
(0.024929 4.93127e-10 0)
(0.024929 4.74445e-10 0)
(0.024929 2.03616e-10 0)
(0.024929 3.6114e-10 0)
(0.024929 5.30275e-10 0)
(0.024929 4.39835e-10 0)
(0.024929 3.85761e-10 0)
(0.024929 6.69529e-10 0)
(0.024929 1.49102e-09 0)
(0.024929 3.15287e-09 0)
(0.024929 6.47228e-09 0)
(0.0249289 1.6374e-08 0)
(0.0249289 1.9288e-08 0)
(0.0747884 -1.05454e-07 0)
(0.0747886 -1.02249e-07 0)
(0.0747888 -4.78156e-08 0)
(0.0747888 -2.15266e-08 0)
(0.0747889 -8.95747e-09 0)
(0.0747889 -2.03337e-09 0)
(0.0747889 9.18786e-10 0)
(0.0747889 1.99915e-09 0)
(0.0747889 2.37924e-09 0)
(0.0747888 2.09331e-09 0)
(0.0747888 1.94071e-09 0)
(0.0747888 1.89238e-09 0)
(0.0747888 1.88076e-09 0)
(0.0747888 2.33433e-09 0)
(0.0747888 3.80764e-09 0)
(0.0747888 7.2689e-09 0)
(0.0747888 1.44359e-08 0)
(0.0747887 2.82342e-08 0)
(0.0747886 5.95501e-08 0)
(0.0747885 6.50712e-08 0)
(0.124653 -1.83825e-07 0)
(0.124653 -1.91523e-07 0)
(0.124654 -1.02995e-07 0)
(0.124654 -4.9018e-08 0)
(0.124654 -2.0355e-08 0)
(0.124654 -4.53314e-09 0)
(0.124654 2.76761e-09 0)
(0.124654 5.65546e-09 0)
(0.124654 6.3289e-09 0)
(0.124654 5.67179e-09 0)
(0.124654 5.24425e-09 0)
(0.124654 5.01385e-09 0)
(0.124654 5.10262e-09 0)
(0.124654 6.37617e-09 0)
(0.124654 1.00393e-08 0)
(0.124654 1.81976e-08 0)
(0.124654 3.43276e-08 0)
(0.124654 6.31743e-08 0)
(0.124654 1.14929e-07 0)
(0.124653 1.15969e-07 0)
(0.174527 -2.35447e-07 0)
(0.174527 -2.54083e-07 0)
(0.174527 -1.46891e-07 0)
(0.174527 -7.15846e-08 0)
(0.174527 -2.85478e-08 0)
(0.174527 -4.40968e-09 0)
(0.174527 6.85848e-09 0)
(0.174527 1.08944e-08 0)
(0.174527 1.18112e-08 0)
(0.174527 1.07897e-08 0)
(0.174527 9.54576e-09 0)
(0.174527 8.70903e-09 0)
(0.174527 8.85797e-09 0)
(0.174527 1.10449e-08 0)
(0.174527 1.69018e-08 0)
(0.174527 2.9529e-08 0)
(0.174527 5.3811e-08 0)
(0.174527 9.52072e-08 0)
(0.174527 1.59175e-07 0)
(0.174527 1.53765e-07 0)
(0.224412 -2.53035e-07 0)
(0.224412 -2.78622e-07 0)
(0.224412 -1.67565e-07 0)
(0.224412 -8.09001e-08 0)
(0.224412 -2.91344e-08 0)
(0.224412 3.56636e-11 0)
(0.224412 1.38031e-08 0)
(0.224412 1.83258e-08 0)
(0.224412 1.86175e-08 0)
(0.224412 1.66472e-08 0)
(0.224412 1.44515e-08 0)
(0.224412 1.29262e-08 0)
(0.224412 1.28613e-08 0)
(0.224412 1.55329e-08 0)
(0.224412 2.29332e-08 0)
(0.224412 3.86818e-08 0)
(0.224412 6.81476e-08 0)
(0.224412 1.16145e-07 0)
(0.224412 1.83091e-07 0)
(0.224412 1.72479e-07 0)
(0.274312 -2.38027e-07 0)
(0.274312 -2.64718e-07 0)
(0.274312 -1.59881e-07 0)
(0.274312 -7.26645e-08 0)
(0.274312 -1.92037e-08 0)
(0.274312 1.06101e-08 0)
(0.274312 2.41304e-08 0)
(0.274312 2.7648e-08 0)
(0.274312 2.64697e-08 0)
(0.274312 2.30731e-08 0)
(0.274312 1.96267e-08 0)
(0.274312 1.71498e-08 0)
(0.274312 1.65294e-08 0)
(0.274312 1.91266e-08 0)
(0.274312 2.70181e-08 0)
(0.274312 4.37993e-08 0)
(0.274312 7.45147e-08 0)
(0.274312 1.22543e-07 0)
(0.274311 1.84862e-07 0)
(0.274312 1.71545e-07 0)
(0.324229 -1.93673e-07 0)
(0.324228 -2.15864e-07 0)
(0.324228 -1.24324e-07 0)
(0.324228 -4.60003e-08 0)
(0.324228 1.91626e-09 0)
(0.324228 2.75644e-08 0)
(0.324228 3.77845e-08 0)
(0.324228 3.85755e-08 0)
(0.324228 3.50164e-08 0)
(0.324228 2.97004e-08 0)
(0.324228 2.47041e-08 0)
(0.324228 2.10222e-08 0)
(0.324228 1.95064e-08 0)
(0.324228 2.1428e-08 0)
(0.324228 2.86527e-08 0)
(0.324228 4.42701e-08 0)
(0.324228 7.24155e-08 0)
(0.324228 1.14735e-07 0)
(0.324228 1.6642e-07 0)
(0.324228 1.52725e-07 0)
(0.374164 -1.25053e-07 0)
(0.374164 -1.37899e-07 0)
(0.374164 -6.44944e-08 0)
(0.374164 -2.75648e-09 0)
(0.374164 3.30998e-08 0)
(0.374164 5.0032e-08 0)
(0.374164 5.4065e-08 0)
(0.374164 5.04919e-08 0)
(0.374164 4.37128e-08 0)
(0.374164 3.60546e-08 0)
(0.374164 2.92848e-08 0)
(0.374164 2.42208e-08 0)
(0.374164 2.15367e-08 0)
(0.374164 2.22427e-08 0)
(0.374164 2.77444e-08 0)
(0.374164 4.02599e-08 0)
(0.374164 6.26522e-08 0)
(0.374164 9.48585e-08 0)
(0.374164 1.31639e-07 0)
(0.374164 1.19327e-07 0)
(0.424121 -3.87686e-08 0)
(0.42412 -3.85939e-08 0)
(0.42412 1.34579e-08 0)
(0.42412 5.28714e-08 0)
(0.42412 7.15438e-08 0)
(0.42412 7.60875e-08 0)
(0.42412 7.16366e-08 0)
(0.42412 6.24317e-08 0)
(0.42412 5.18426e-08 0)
(0.42412 4.16026e-08 0)
(0.42412 3.29796e-08 0)
(0.42412 2.64796e-08 0)
(0.42412 2.24755e-08 0)
(0.42412 2.15836e-08 0)
(0.42412 2.45765e-08 0)
(0.42412 3.2573e-08 0)
(0.42412 4.69753e-08 0)
(0.42412 6.61887e-08 0)
(0.42412 8.53814e-08 0)
(0.42412 7.55409e-08 0)
(0.474099 5.73864e-08 0)
(0.474098 7.28073e-08 0)
(0.474098 1.01549e-07 0)
(0.474098 1.14934e-07 0)
(0.474098 1.1312e-07 0)
(0.474098 1.02944e-07 0)
(0.474098 8.8652e-08 0)
(0.474098 7.31641e-08 0)
(0.474098 5.85799e-08 0)
(0.474098 4.57954e-08 0)
(0.474098 3.54364e-08 0)
(0.474098 2.76053e-08 0)
(0.474098 2.22928e-08 0)
(0.474098 1.96449e-08 0)
(0.474098 1.97131e-08 0)
(0.474098 2.24298e-08 0)
(0.474098 2.76854e-08 0)
(0.474098 3.25652e-08 0)
(0.474098 3.29469e-08 0)
(0.474098 2.60238e-08 0)
(0.524099 1.54924e-07 0)
(0.524098 1.86148e-07 0)
(0.524098 1.90627e-07 0)
(0.524098 1.76362e-07 0)
(0.524098 1.52842e-07 0)
(0.524098 1.27272e-07 0)
(0.524098 1.02969e-07 0)
(0.524098 8.13399e-08 0)
(0.524098 6.30833e-08 0)
(0.524098 4.8123e-08 0)
(0.524098 3.63725e-08 0)
(0.524098 2.74921e-08 0)
(0.524098 2.10634e-08 0)
(0.524098 1.67499e-08 0)
(0.524098 1.38833e-08 0)
(0.524098 1.1249e-08 0)
(0.524098 7.28283e-09 0)
(0.524098 -2.06126e-09 0)
(0.524098 -2.03769e-08 0)
(0.524098 -2.44754e-08 0)
(0.574121 2.45109e-07 0)
(0.57412 2.90854e-07 0)
(0.57412 2.71014e-07 0)
(0.57412 2.29634e-07 0)
(0.57412 1.85429e-07 0)
(0.57412 1.45624e-07 0)
(0.57412 1.12447e-07 0)
(0.57412 8.56838e-08 0)
(0.57412 6.46182e-08 0)
(0.57412 4.81881e-08 0)
(0.57412 3.56119e-08 0)
(0.57412 2.61305e-08 0)
(0.57412 1.89459e-08 0)
(0.57412 1.32918e-08 0)
(0.57412 7.86485e-09 0)
(0.57412 4.51974e-10 0)
(0.57412 -1.18165e-08 0)
(0.57412 -3.39678e-08 0)
(0.57412 -6.96214e-08 0)
(0.57412 -7.14025e-08 0)
(0.624165 3.19398e-07 0)
(0.624164 3.7643e-07 0)
(0.624164 3.33179e-07 0)
(0.624164 2.67521e-07 0)
(0.624164 2.05961e-07 0)
(0.624164 1.54923e-07 0)
(0.624164 1.15289e-07 0)
(0.624164 8.52197e-08 0)
(0.624164 6.26967e-08 0)
(0.624164 4.57876e-08 0)
(0.624164 3.31253e-08 0)
(0.624164 2.36158e-08 0)
(0.624164 1.61628e-08 0)
(0.624164 9.68041e-09 0)
(0.624164 2.38573e-09 0)
(0.624164 -8.69541e-09 0)
(0.624164 -2.75011e-08 0)
(0.624164 -5.99081e-08 0)
(0.624164 -1.10364e-07 0)
(0.624164 -1.10628e-07 0)
(0.674229 3.69933e-07 0)
(0.674229 4.33047e-07 0)
(0.674229 3.68553e-07 0)
(0.674229 2.83944e-07 0)
(0.674229 2.10607e-07 0)
(0.674229 1.53007e-07 0)
(0.674229 1.1041e-07 0)
(0.674229 7.94996e-08 0)
(0.674229 5.7213e-08 0)
(0.674229 4.09877e-08 0)
(0.674229 2.90648e-08 0)
(0.674229 2.01538e-08 0)
(0.674229 1.29826e-08 0)
(0.674229 6.29573e-09 0)
(0.674229 -1.95739e-09 0)
(0.674229 -1.52103e-08 0)
(0.674229 -3.81421e-08 0)
(0.674229 -7.73164e-08 0)
(0.674229 -1.38918e-07 0)
(0.674229 -1.38651e-07 0)
(0.724312 3.90097e-07 0)
(0.724312 4.52313e-07 0)
(0.724312 3.70563e-07 0)
(0.724312 2.74967e-07 0)
(0.724312 1.97408e-07 0)
(0.724312 1.39153e-07 0)
(0.724312 9.77587e-08 0)
(0.724312 6.87849e-08 0)
(0.724312 4.85378e-08 0)
(0.724312 3.41672e-08 0)
(0.724312 2.37774e-08 0)
(0.724312 1.60537e-08 0)
(0.724312 9.69582e-09 0)
(0.724312 3.44914e-09 0)
(0.724312 -4.76176e-09 0)
(0.724312 -1.84919e-08 0)
(0.724312 -4.27418e-08 0)
(0.724312 -8.44904e-08 0)
(0.724312 -1.52511e-07 0)
(0.724313 -1.52787e-07 0)
(0.774412 3.75197e-07 0)
(0.774412 4.28307e-07 0)
(0.774413 3.35916e-07 0)
(0.774413 2.39896e-07 0)
(0.774413 1.67003e-07 0)
(0.774413 1.1449e-07 0)
(0.774413 7.85195e-08 0)
(0.774413 5.41314e-08 0)
(0.774413 3.75403e-08 0)
(0.774413 2.60093e-08 0)
(0.774413 1.77833e-08 0)
(0.774413 1.17025e-08 0)
(0.774413 6.58802e-09 0)
(0.774413 1.34971e-09 0)
(0.774413 -5.86599e-09 0)
(0.774413 -1.83955e-08 0)
(0.774413 -4.10601e-08 0)
(0.774413 -8.07648e-08 0)
(0.774413 -1.49441e-07 0)
(0.774413 -1.51323e-07 0)
(0.824527 3.22989e-07 0)
(0.824527 3.58835e-07 0)
(0.824527 2.66097e-07 0)
(0.824528 1.82219e-07 0)
(0.824528 1.23069e-07 0)
(0.824528 8.21428e-08 0)
(0.824528 5.51031e-08 0)
(0.824528 3.7312e-08 0)
(0.824528 2.54942e-08 0)
(0.824528 1.74173e-08 0)
(0.824528 1.17093e-08 0)
(0.824528 7.51136e-09 0)
(0.824528 3.89899e-09 0)
(0.824528 8.37986e-11 0)
(0.824528 -5.36107e-09 0)
(0.824528 -1.52498e-08 0)
(0.824528 -3.36637e-08 0)
(0.824528 -6.66052e-08 0)
(0.824528 -1.29074e-07 0)
(0.824528 -1.33498e-07 0)
(0.874653 2.37216e-07 0)
(0.874654 2.50966e-07 0)
(0.874654 1.71492e-07 0)
(0.874654 1.11939e-07 0)
(0.874654 7.33821e-08 0)
(0.874654 4.7664e-08 0)
(0.874654 3.13248e-08 0)
(0.874654 2.09219e-08 0)
(0.874654 1.41481e-08 0)
(0.874654 9.5147e-09 0)
(0.874654 6.24944e-09 0)
(0.874654 3.95472e-09 0)
(0.874654 1.92112e-09 0)
(0.874654 -4.22283e-10 0)
(0.874654 -3.77873e-09 0)
(0.874654 -1.0056e-08 0)
(0.874654 -2.227e-08 0)
(0.874654 -4.46334e-08 0)
(0.874654 -9.33777e-08 0)
(0.874654 -1.00346e-07 0)
(0.924788 1.30442e-07 0)
(0.924789 1.26403e-07 0)
(0.924789 7.50702e-08 0)
(0.924789 4.56507e-08 0)
(0.924789 2.89243e-08 0)
(0.924789 1.8133e-08 0)
(0.924789 1.16056e-08 0)
(0.924789 7.61387e-09 0)
(0.924789 5.08561e-09 0)
(0.924789 3.36419e-09 0)
(0.924789 2.14916e-09 0)
(0.924789 1.3121e-09 0)
(0.924789 5.49826e-10 0)
(0.924789 -3.30717e-10 0)
(0.924789 -1.64996e-09 0)
(0.924789 -4.2983e-09 0)
(0.924789 -9.72084e-09 0)
(0.924789 -1.9872e-08 0)
(0.924789 -4.8228e-08 0)
(0.924789 -5.61768e-08 0)
(0.974929 3.83086e-08 0)
(0.974929 3.37363e-08 0)
(0.974929 1.63882e-08 0)
(0.974929 8.98769e-09 0)
(0.974929 5.47276e-09 0)
(0.974929 3.23272e-09 0)
(0.974929 2.00632e-09 0)
(0.974929 1.34439e-09 0)
(0.974929 9.29076e-10 0)
(0.974929 5.71348e-10 0)
(0.974929 3.00708e-10 0)
(0.974929 2.12569e-10 0)
(0.974929 1.12884e-10 0)
(0.974929 -1.28584e-10 0)
(0.974929 -4.15966e-10 0)
(0.974929 -1.00657e-09 0)
(0.974929 -2.34298e-09 0)
(0.974929 -4.79161e-09 0)
(0.974929 -1.37166e-08 0)
(0.974929 -1.68175e-08 0)
)
;

boundaryField
{
    top
    {
        type            fixedValue;
        value           uniform (1 0 0);
    }
    bottom
    {
        type            fixedValue;
        value           uniform (0 0 0);
    }
    inlet
    {
        type            zeroGradient;
    }
    outlet
    {
        type            zeroGradient;
    }
    frontAndBack
    {
        type            empty;
    }
}


// ************************************************************************* //
