/*--------------------------------*- C++ -*----------------------------------*\
  =========                 |
  \\      /  F ield         | OpenFOAM: The Open Source CFD Toolbox
   \\    /   O peration     | Website:  https://openfoam.org
    \\  /    A nd           | Version:  9
     \\/     M anipulation  |
\*---------------------------------------------------------------------------*/
FoamFile
{
    format      ascii;
    class       volScalarField;
    location    "4.4";
    object      p;
}
// * * * * * * * * * * * * * * * * * * * * * * * * * * * * * * * * * * * * * //

dimensions      [0 2 -2 0 0 0 0];

internalField   nonuniform List<scalar> 
400
(
2.26456e-11
3.75287e-11
3.62881e-11
3.45192e-11
3.16118e-11
2.81676e-11
2.45791e-11
2.09279e-11
1.72751e-11
1.36514e-11
1.00403e-11
6.41858e-12
2.77807e-12
-8.79769e-13
-4.55113e-12
-8.24275e-12
-1.18593e-11
-1.51399e-11
-1.92861e-11
-1.21849e-11
2.14806e-11
3.57629e-11
3.44136e-11
3.33959e-11
3.09302e-11
2.77564e-11
2.43411e-11
2.07948e-11
1.72036e-11
1.36155e-11
1.00251e-11
6.41657e-12
2.78823e-12
-8.51301e-13
-4.48457e-12
-8.09912e-12
-1.1555e-11
-1.44416e-11
-1.88309e-11
-1.18744e-11
2.17165e-11
3.5916e-11
3.33573e-11
3.26673e-11
3.04407e-11
2.74331e-11
2.41417e-11
2.06767e-11
1.71354e-11
1.3577e-11
1.00046e-11
6.40861e-12
2.7918e-12
-8.32516e-13
-4.43842e-12
-8.00883e-12
-1.13985e-11
-1.40992e-11
-1.94356e-11
-1.23105e-11
2.25498e-11
3.74803e-11
3.31342e-11
3.23598e-11
3.01762e-11
2.72234e-11
2.39974e-11
2.05822e-11
1.70741e-11
1.35368e-11
9.97885e-12
6.39378e-12
2.78646e-12
-8.28193e-13
-4.42194e-12
-7.98607e-12
-1.13992e-11
-1.41233e-11
-2.06614e-11
-1.29863e-11
2.34631e-11
3.96492e-11
3.33427e-11
3.229e-11
3.00472e-11
2.70849e-11
2.38873e-11
2.05012e-11
1.70153e-11
1.34942e-11
9.94876e-12
6.37338e-12
2.77319e-12
-8.36366e-13
-4.4291e-12
-8.00998e-12
-1.14942e-11
-1.43243e-11
-2.20332e-11
-1.36289e-11
2.43064e-11
4.19929e-11
3.37647e-11
3.23486e-11
2.99987e-11
2.6989e-11
2.37967e-11
2.04269e-11
1.6957e-11
1.34493e-11
9.9152e-12
6.34859e-12
2.75369e-12
-8.54322e-13
-4.45258e-12
-8.06095e-12
-1.1634e-11
-1.45871e-11
-2.32914e-11
-1.41515e-11
2.50502e-11
4.42739e-11
3.4276e-11
3.24688e-11
2.99934e-11
2.69168e-11
2.37156e-11
2.03554e-11
1.68985e-11
1.34031e-11
9.87929e-12
6.32038e-12
2.72974e-12
-8.78495e-13
-4.485e-12
-8.12237e-12
-1.1783e-11
-1.4842e-11
-2.43041e-11
-1.45394e-11
2.5665e-11
4.62976e-11
3.47765e-11
3.25934e-11
2.99976e-11
2.6851e-11
2.36361e-11
2.02829e-11
1.68386e-11
1.33555e-11
9.84215e-12
6.29066e-12
2.70371e-12
-9.04713e-13
-4.51816e-12
-8.17759e-12
-1.19089e-11
-1.50369e-11
-2.49798e-11
-1.47781e-11
2.61326e-11
4.79131e-11
3.51852e-11
3.26766e-11
2.99845e-11
2.67787e-11
2.35522e-11
2.02078e-11
1.67775e-11
1.33077e-11
9.805e-12
6.26118e-12
2.67835e-12
-9.28447e-13
-4.54411e-12
-8.21225e-12
-1.19855e-11
-1.51339e-11
-2.52668e-11
-1.48634e-11
2.64388e-11
4.90094e-11
3.54464e-11
3.26897e-11
2.99384e-11
2.66937e-11
2.34628e-11
2.01303e-11
1.67158e-11
1.32605e-11
9.76928e-12
6.23383e-12
2.65651e-12
-9.45722e-13
-4.55595e-12
-8.2155e-12
-1.19949e-11
-1.5111e-11
-2.51456e-11
-1.47963e-11
2.65738e-11
4.95149e-11
3.55293e-11
3.26218e-11
2.98549e-11
2.65966e-11
2.33704e-11
2.00531e-11
1.66562e-11
1.32158e-11
9.73608e-12
6.20991e-12
2.64039e-12
-9.53199e-13
-4.54962e-12
-8.18156e-12
-1.19293e-11
-1.49608e-11
-2.46257e-11
-1.45835e-11
2.65286e-11
4.93941e-11
3.5427e-11
3.24784e-11
2.9741e-11
2.64946e-11
2.32813e-11
1.99812e-11
1.66018e-11
1.31756e-11
9.70706e-12
6.19086e-12
2.63078e-12
-9.49636e-13
-4.524e-12
-8.11056e-12
-1.17891e-11
-1.46908e-11
-2.37411e-11
-1.42351e-11
2.6295e-11
4.86502e-11
3.51583e-11
3.22804e-11
2.96125e-11
2.64e-11
2.32045e-11
1.99208e-11
1.65564e-11
1.31424e-11
9.68378e-12
6.17682e-12
2.62799e-12
-9.35956e-13
-4.48105e-12
-8.0087e-12
-1.15861e-11
-1.43218e-11
-2.25471e-11
-1.37645e-11
2.58705e-11
4.73325e-11
3.47679e-11
3.20642e-11
2.94934e-11
2.63291e-11
2.31502e-11
1.98781e-11
1.65244e-11
1.31184e-11
9.66717e-12
6.16829e-12
2.6307e-12
-9.15496e-13
-4.42739e-12
-7.88751e-12
-1.13407e-11
-1.38876e-11
-2.11219e-11
-1.31906e-11
2.52562e-11
4.55407e-11
3.43306e-11
3.1878e-11
2.94135e-11
2.62977e-11
2.31287e-11
1.98591e-11
1.65083e-11
1.31049e-11
9.65763e-12
6.16478e-12
2.63666e-12
-8.92403e-13
-4.37274e-12
-7.76424e-12
-1.10827e-11
-1.34348e-11
-1.95651e-11
-1.25385e-11
2.44695e-11
4.34359e-11
3.39435e-11
3.17793e-11
2.94028e-11
2.63208e-11
2.31457e-11
1.98675e-11
1.65098e-11
1.31028e-11
9.65442e-12
6.16414e-12
2.64249e-12
-8.73007e-13
-4.32689e-12
-7.65915e-12
-1.08491e-11
-1.30203e-11
-1.79967e-11
-1.18396e-11
2.35231e-11
4.12398e-11
3.37335e-11
3.1825e-11
2.94881e-11
2.64093e-11
2.32054e-11
1.99031e-11
1.65288e-11
1.31114e-11
9.65759e-12
6.16529e-12
2.64535e-12
-8.63633e-13
-4.30305e-12
-7.59513e-12
-1.06815e-11
-1.27122e-11
-1.65593e-11
-1.11293e-11
2.2556e-11
3.93877e-11
3.3915e-11
3.21072e-11
2.97064e-11
2.65767e-11
2.33115e-11
1.99656e-11
1.65644e-11
1.31295e-11
9.66491e-12
6.16699e-12
2.6416e-12
-8.72856e-13
-4.3147e-12
-7.59967e-12
-1.06373e-11
-1.26217e-11
-1.54892e-11
-1.05032e-11
2.2009e-11
3.86917e-11
3.48835e-11
3.27765e-11
3.01205e-11
2.68456e-11
2.34716e-11
2.00585e-11
1.66173e-11
1.3158e-11
9.67724e-12
6.16656e-12
2.62756e-12
-9.05778e-13
-4.37641e-12
-7.70608e-12
-1.07909e-11
-1.29254e-11
-1.52031e-11
-1.02565e-11
2.2687e-11
3.9854e-11
3.66255e-11
3.37978e-11
3.06946e-11
2.71853e-11
2.3665e-11
2.01689e-11
1.6681e-11
1.31933e-11
9.69273e-12
6.16465e-12
2.60599e-12
-9.5793e-13
-4.47899e-12
-7.89765e-12
-1.11305e-11
-1.36083e-11
-1.59469e-11
-1.08255e-11
)
;

boundaryField
{
    top
    {
        type            zeroGradient;
    }
    bottom
    {
        type            zeroGradient;
    }
    inlet
    {
        type            fixedValue;
        value           uniform 0;
    }
    outlet
    {
        type            fixedValue;
        value           uniform 0;
    }
    frontAndBack
    {
        type            empty;
    }
}


// ************************************************************************* //
