/*--------------------------------*- C++ -*----------------------------------*\
  =========                 |
  \\      /  F ield         | OpenFOAM: The Open Source CFD Toolbox
   \\    /   O peration     | Website:  https://openfoam.org
    \\  /    A nd           | Version:  9
     \\/     M anipulation  |
\*---------------------------------------------------------------------------*/
FoamFile
{
    format      ascii;
    class       surfaceScalarField;
    location    "4.4";
    object      phi;
}
// * * * * * * * * * * * * * * * * * * * * * * * * * * * * * * * * * * * * * //

dimensions      [0 3 -1 0 0 0 0];

internalField   nonuniform List<scalar> 
760
(
1.25e-06
-1.38708e-16
1.25e-06
-1.15427e-16
1.25e-06
-5.49759e-17
1.25e-06
-3.12714e-17
1.25e-06
-1.79506e-17
1.25e-06
-9.8651e-18
1.25e-06
-5.40666e-18
1.25e-06
-2.83088e-18
1.25e-06
-1.38155e-18
1.25e-06
-6.29418e-19
1.25e-06
-2.37258e-19
1.25e-06
5.22948e-21
1.25e-06
2.26747e-19
1.25e-06
5.86866e-19
1.25e-06
1.39218e-18
1.25e-06
3.51807e-18
1.25e-06
8.39227e-18
1.25e-06
1.87523e-17
1.25e-06
5.90823e-17
6.81999e-17
3.75e-06
-3.33924e-16
3.75e-06
-3.12911e-16
3.75e-06
-1.78906e-16
3.75e-06
-1.0648e-16
3.75e-06
-6.28377e-17
3.75e-06
-3.57542e-17
3.75e-06
-1.99711e-17
3.75e-06
-1.0752e-17
3.75e-06
-5.4696e-18
3.75e-06
-2.55272e-18
3.75e-06
-9.53793e-19
3.75e-06
1.06053e-20
3.75e-06
8.45967e-19
3.75e-06
2.15843e-18
3.75e-06
5.02803e-18
3.75e-06
1.19513e-17
3.75e-06
2.73991e-17
3.75e-06
5.88295e-17
3.75e-06
1.43384e-16
1.51535e-16
6.25e-06
-5.07884e-16
6.25e-06
-5.0954e-16
6.25e-06
-3.23905e-16
6.25e-06
-2.00581e-16
6.25e-06
-1.21546e-16
6.25e-06
-7.08333e-17
6.25e-06
-4.02008e-17
6.25e-06
-2.19891e-17
6.25e-06
-1.14014e-17
6.25e-06
-5.42431e-18
6.25e-06
-2.09818e-18
6.25e-06
-1.1678e-19
6.25e-06
1.5235e-18
6.25e-06
3.99263e-18
6.25e-06
9.2535e-18
6.25e-06
2.13786e-17
6.25e-06
4.74834e-17
6.25e-06
9.82204e-17
6.25e-06
2.08052e-16
2.08209e-16
8.75e-06
-6.38137e-16
8.75e-06
-6.64648e-16
8.75e-06
-4.52408e-16
8.75e-06
-2.90294e-16
8.75e-06
-1.8016e-16
8.75e-06
-1.07079e-16
8.75e-06
-6.16058e-17
8.75e-06
-3.40986e-17
8.75e-06
-1.78963e-17
8.75e-06
-8.63767e-18
8.75e-06
-3.46369e-18
8.75e-06
-4.45305e-19
8.75e-06
1.91167e-18
8.75e-06
5.25639e-18
8.75e-06
1.22375e-17
8.75e-06
2.78971e-17
8.75e-06
6.07586e-17
8.75e-06
1.21502e-16
8.75e-06
2.37624e-16
2.30461e-16
1.125e-05
-7.11391e-16
1.125e-05
-7.57488e-16
1.125e-05
-5.41233e-16
1.125e-05
-3.57667e-16
1.125e-05
-2.26686e-16
1.125e-05
-1.36995e-16
1.125e-05
-7.97447e-17
1.125e-05
-4.45319e-17
1.125e-05
-2.35527e-17
1.125e-05
-1.14763e-17
1.125e-05
-4.74978e-18
1.125e-05
-9.59432e-19
1.125e-05
1.74401e-18
1.125e-05
5.28852e-18
1.125e-05
1.25845e-17
1.125e-05
2.88346e-17
1.125e-05
6.2529e-17
1.125e-05
1.22326e-16
1.125e-05
2.28113e-16
2.1622e-16
1.375e-05
-7.24101e-16
1.375e-05
-7.81e-16
1.375e-05
-5.78196e-16
1.375e-05
-3.91351e-16
1.375e-05
-2.52522e-16
1.375e-05
-1.54769e-16
1.375e-05
-9.09494e-17
1.375e-05
-5.10945e-17
1.375e-05
-2.71196e-17
1.375e-05
-1.32741e-17
1.375e-05
-5.64239e-18
1.375e-05
-1.56994e-18
1.375e-05
9.14276e-19
1.375e-05
3.74164e-18
1.375e-05
9.6242e-18
1.375e-05
2.31058e-17
1.375e-05
5.1462e-17
1.375e-05
1.00248e-16
1.375e-05
1.8317e-16
1.69357e-16
1.625e-05
-6.78674e-16
1.625e-05
-7.36602e-16
1.625e-05
-5.60037e-16
1.625e-05
-3.86354e-16
1.625e-05
-2.53108e-16
1.625e-05
-1.56945e-16
1.625e-05
-9.28932e-17
1.625e-05
-5.23225e-17
1.625e-05
-2.77259e-17
1.625e-05
-1.35298e-17
1.625e-05
-5.88031e-18
1.625e-05
-2.16257e-18
1.625e-05
-5.27983e-19
1.625e-05
6.47311e-19
1.625e-05
3.44411e-18
1.625e-05
1.10878e-17
1.625e-05
2.88216e-17
1.625e-05
5.88222e-17
1.625e-05
1.1005e-16
9.64196e-17
1.875e-05
-5.82454e-16
1.875e-05
-6.32121e-16
1.875e-05
-4.90429e-16
1.875e-05
-3.43469e-16
1.875e-05
-2.27963e-16
1.875e-05
-1.42729e-16
1.875e-05
-8.48598e-17
1.875e-05
-4.77133e-17
1.875e-05
-2.50464e-17
1.875e-05
-1.20486e-17
1.875e-05
-5.32012e-18
1.875e-05
-2.60025e-18
1.875e-05
-2.39659e-18
1.875e-05
-3.64631e-18
1.875e-05
-5.22595e-18
1.875e-05
-5.68092e-18
1.875e-05
-2.29367e-18
1.875e-05
3.89661e-18
1.875e-05
1.81446e-17
5.89505e-18
2.125e-05
-4.46129e-16
2.125e-05
-4.79803e-16
2.125e-05
-3.78445e-16
2.125e-05
-2.68398e-16
2.125e-05
-1.80383e-16
2.125e-05
-1.13928e-16
2.125e-05
-6.78317e-17
2.125e-05
-3.7781e-17
2.125e-05
-1.93429e-17
2.125e-05
-8.93848e-18
2.125e-05
-3.97713e-18
2.125e-05
-2.78483e-18
2.125e-05
-4.42723e-18
2.125e-05
-8.55557e-18
2.125e-05
-1.52226e-17
2.125e-05
-2.4939e-17
2.125e-05
-3.77368e-17
2.125e-05
-5.75383e-17
2.125e-05
-8.24537e-17
-9.30432e-17
2.375e-05
-2.8297e-16
2.375e-05
-2.95169e-16
2.375e-05
-2.37177e-16
2.375e-05
-1.7071e-16
2.375e-05
-1.16772e-16
2.375e-05
-7.45753e-17
2.375e-05
-4.42493e-17
2.375e-05
-2.39672e-17
2.375e-05
-1.14548e-17
2.375e-05
-4.64908e-18
2.375e-05
-2.02156e-18
2.375e-05
-2.66976e-18
2.375e-05
-6.31965e-18
2.375e-05
-1.33962e-17
2.375e-05
-2.51548e-17
2.375e-05
-4.4098e-17
2.375e-05
-7.29824e-17
2.375e-05
-1.18283e-16
2.375e-05
-1.81718e-16
-1.91094e-16
2.625e-05
-1.07911e-16
2.625e-05
-9.59117e-17
2.625e-05
-8.24445e-17
2.625e-05
-6.2633e-17
2.625e-05
-4.57391e-17
2.625e-05
-3.03143e-17
2.625e-05
-1.76411e-17
2.625e-05
-8.40901e-18
2.625e-05
-2.61356e-18
2.625e-05
1.38063e-19
2.625e-05
2.17476e-19
2.625e-05
-2.29583e-18
2.625e-05
-7.79714e-18
2.625e-05
-1.7475e-17
2.625e-05
-3.36504e-17
2.625e-05
-6.0625e-17
2.625e-05
-1.03715e-16
2.625e-05
-1.71562e-16
2.625e-05
-2.70301e-16
-2.79451e-16
2.875e-05
6.32782e-17
2.875e-05
9.90479e-17
2.875e-05
6.84296e-17
2.875e-05
4.22496e-17
2.875e-05
2.30353e-17
2.875e-05
1.24305e-17
2.875e-05
7.9537e-18
2.875e-05
6.45165e-18
2.875e-05
5.74669e-18
2.875e-05
4.62073e-18
2.875e-05
2.35165e-18
2.875e-05
-1.74224e-18
2.875e-05
-8.67282e-18
2.875e-05
-2.02105e-17
2.875e-05
-3.95463e-17
2.875e-05
-7.23647e-17
2.875e-05
-1.26209e-16
2.875e-05
-2.11575e-16
2.875e-05
-3.40036e-16
-3.50226e-16
3.125e-05
2.14811e-16
3.125e-05
2.70546e-16
3.125e-05
1.98058e-16
3.125e-05
1.3045e-16
3.125e-05
8.00824e-17
3.125e-05
4.7454e-17
3.125e-05
2.86746e-17
3.125e-05
1.83025e-17
3.125e-05
1.2272e-17
3.125e-05
8.0515e-18
3.125e-05
4.00171e-18
3.125e-05
-1.14667e-18
3.125e-05
-8.83236e-18
3.125e-05
-2.12101e-17
3.125e-05
-4.20055e-17
3.125e-05
-7.77923e-17
3.125e-05
-1.37767e-16
3.125e-05
-2.33897e-16
3.125e-05
-3.84238e-16
-3.96848e-16
3.375e-05
3.31927e-16
3.375e-05
4.00381e-16
3.375e-05
2.90489e-16
3.375e-05
1.90315e-16
3.375e-05
1.17554e-16
3.375e-05
6.98452e-17
3.375e-05
4.15348e-17
3.375e-05
2.54019e-17
3.375e-05
1.59958e-17
3.375e-05
9.8885e-18
3.375e-05
4.88934e-18
3.375e-05
-6.22035e-19
3.375e-05
-8.26678e-18
3.375e-05
-2.03507e-17
3.375e-05
-4.06857e-17
3.375e-05
-7.61773e-17
3.375e-05
-1.36923e-16
3.375e-05
-2.35828e-16
3.375e-05
-3.98131e-16
-4.14431e-16
3.625e-05
4.01623e-16
3.625e-05
4.72627e-16
3.625e-05
3.33322e-16
3.625e-05
2.1383e-16
3.625e-05
1.30722e-16
3.625e-05
7.69149e-17
3.625e-05
4.51231e-17
3.625e-05
2.69758e-17
3.625e-05
1.65035e-17
3.625e-05
9.92221e-18
3.625e-05
4.90891e-18
3.625e-05
-2.3072e-19
3.625e-05
-7.06243e-18
3.625e-05
-1.7746e-17
3.625e-05
-3.58111e-17
3.625e-05
-6.77441e-17
3.625e-05
-1.23724e-16
3.625e-05
-2.16752e-16
3.625e-05
-3.79226e-16
-4.00141e-16
3.875e-05
4.14725e-16
3.875e-05
4.76043e-16
3.875e-05
3.2011e-16
3.875e-05
1.98844e-16
3.875e-05
1.193e-16
3.875e-05
6.9048e-17
3.875e-05
3.98982e-17
3.875e-05
2.34815e-17
3.875e-05
1.41139e-17
3.875e-05
8.35932e-18
3.875e-05
4.12753e-18
3.875e-05
-1.83819e-20
3.875e-05
-5.41116e-18
3.875e-05
-1.38088e-17
3.875e-05
-2.80806e-17
3.875e-05
-5.3722e-17
3.875e-05
-9.99375e-17
3.875e-05
-1.78603e-16
3.875e-05
-3.27963e-16
-3.53709e-16
4.125e-05
3.66511e-16
4.125e-05
4.06598e-16
4.125e-05
2.54013e-16
4.125e-05
1.50908e-16
4.125e-05
8.83957e-17
4.125e-05
5.00254e-17
4.125e-05
2.84164e-17
4.125e-05
1.65157e-17
4.125e-05
9.8168e-18
4.125e-05
5.77114e-18
4.125e-05
2.86308e-18
4.125e-05
4.18475e-20
4.125e-05
-3.55942e-18
4.125e-05
-9.17017e-18
4.125e-05
-1.88114e-17
4.125e-05
-3.63952e-17
4.125e-05
-6.9192e-17
4.125e-05
-1.26369e-16
4.125e-05
-2.48566e-16
-2.78076e-16
4.375e-05
2.6228e-16
4.375e-05
2.74475e-16
4.375e-05
1.51659e-16
4.375e-05
8.514e-17
4.375e-05
4.85519e-17
4.375e-05
2.6677e-17
4.375e-05
1.485e-17
4.375e-05
8.53867e-18
4.375e-05
5.05492e-18
4.375e-05
2.97421e-18
4.375e-05
1.48779e-18
4.375e-05
6.06189e-20
4.375e-05
-1.79627e-18
4.375e-05
-4.71407e-18
4.375e-05
-9.71623e-18
4.375e-05
-1.89991e-17
4.375e-05
-3.71607e-17
4.375e-05
-6.89932e-17
4.375e-05
-1.5125e-16
-1.8098e-16
4.625e-05
1.15903e-16
4.625e-05
1.11125e-16
4.625e-05
4.95608e-17
4.625e-05
2.55139e-17
4.625e-05
1.42844e-17
4.625e-05
7.47966e-18
4.625e-05
4.05278e-18
4.625e-05
2.31383e-18
4.625e-05
1.37321e-18
4.625e-05
8.18763e-19
4.625e-05
4.28822e-19
4.625e-05
4.49575e-20
4.625e-05
-4.94607e-19
4.625e-05
-1.34483e-18
4.625e-05
-2.78886e-18
4.625e-05
-5.5274e-18
4.625e-05
-1.12627e-17
4.625e-05
-2.08249e-17
4.625e-05
-5.53087e-17
-7.49062e-17
4.875e-05
4.875e-05
4.875e-05
4.875e-05
4.875e-05
4.875e-05
4.875e-05
4.875e-05
4.875e-05
4.875e-05
4.875e-05
4.875e-05
4.875e-05
4.875e-05
4.875e-05
4.875e-05
4.875e-05
4.875e-05
4.875e-05
)
;

boundaryField
{
    top
    {
        type            calculated;
        value           uniform 0;
    }
    bottom
    {
        type            calculated;
        value           uniform 0;
    }
    inlet
    {
        type            calculated;
        value           nonuniform List<scalar> 
20
(
-1.25e-06
-3.75e-06
-6.25e-06
-8.75e-06
-1.125e-05
-1.375e-05
-1.625e-05
-1.875e-05
-2.125e-05
-2.375e-05
-2.625e-05
-2.875e-05
-3.125e-05
-3.375e-05
-3.625e-05
-3.875e-05
-4.125e-05
-4.375e-05
-4.625e-05
-4.875e-05
)
;
    }
    outlet
    {
        type            calculated;
        value           nonuniform List<scalar> 
20
(
1.25e-06
3.75e-06
6.25e-06
8.75e-06
1.125e-05
1.375e-05
1.625e-05
1.875e-05
2.125e-05
2.375e-05
2.625e-05
2.875e-05
3.125e-05
3.375e-05
3.625e-05
3.875e-05
4.125e-05
4.375e-05
4.625e-05
4.875e-05
)
;
    }
    frontAndBack
    {
        type            empty;
        value           nonuniform List<scalar> 0();
    }
}


// ************************************************************************* //
