/*--------------------------------*- C++ -*----------------------------------*\
  =========                 |
  \\      /  F ield         | OpenFOAM: The Open Source CFD Toolbox
   \\    /   O peration     | Website:  https://openfoam.org
    \\  /    A nd           | Version:  9
     \\/     M anipulation  |
\*---------------------------------------------------------------------------*/
FoamFile
{
    format      ascii;
    class       volVectorField;
    location    "4.4";
    object      U;
}
// * * * * * * * * * * * * * * * * * * * * * * * * * * * * * * * * * * * * * //

dimensions      [0 1 -1 0 0 0 0];

internalField   nonuniform List<vector> 
400
(
(0.025 -6.79391e-13 0)
(0.025 -5.44067e-13 0)
(0.025 -2.29411e-13 0)
(0.025 -1.22372e-13 0)
(0.025 -6.75184e-14 0)
(0.025 -3.57891e-14 0)
(0.025 -1.92876e-14 0)
(0.025 -9.64661e-15 0)
(0.025 -4.34545e-15 0)
(0.025 -1.85249e-15 0)
(0.025 -6.71589e-16 0)
(0.025 9.9721e-17 0)
(0.025 8.93721e-16 0)
(0.025 2.25126e-15 0)
(0.025 5.37874e-15 0)
(0.025 1.42911e-14 0)
(0.025 3.56776e-14 0)
(0.025 8.49945e-14 0)
(0.025 2.98341e-13 0)
(0.025 3.49507e-13 0)
(0.075 -2.33797e-12 0)
(0.075 -2.07916e-12 0)
(0.075 -1.08617e-12 0)
(0.075 -6.23561e-13 0)
(0.075 -3.60125e-13 0)
(0.075 -2.00212e-13 0)
(0.075 -1.10066e-13 0)
(0.075 -5.82033e-14 0)
(0.075 -2.88525e-14 0)
(0.075 -1.30935e-14 0)
(0.075 -4.67141e-15 0)
(0.075 4.38802e-16 0)
(0.075 5.02923e-15 0)
(0.075 1.25213e-14 0)
(0.075 2.93424e-14 0)
(0.075 7.18146e-14 0)
(0.075 1.68906e-13 0)
(0.075 3.75819e-13 0)
(0.075 1.0198e-12 0)
(0.075 1.11921e-12 0)
(0.125 -4.25083e-12 0)
(0.125 -4.12817e-12 0)
(0.125 -2.49346e-12 0)
(0.125 -1.5087e-12 0)
(0.125 -8.99923e-13 0)
(0.125 -5.1747e-13 0)
(0.125 -2.91004e-13 0)
(0.125 -1.57699e-13 0)
(0.125 -8.09019e-14 0)
(0.125 -3.80818e-14 0)
(0.125 -1.44154e-14 0)
(0.125 -1.33443e-16 0)
(0.125 1.21249e-14 0)
(0.125 3.11274e-14 0)
(0.125 7.21476e-14 0)
(0.125 1.68636e-13 0)
(0.125 3.80008e-13 0)
(0.125 8.01828e-13 0)
(0.125 1.80389e-12 0)
(0.125 1.85528e-12 0)
(0.175 -5.84885e-12 0)
(0.175 -5.98183e-12 0)
(0.175 -3.94438e-12 0)
(0.175 -2.48454e-12 0)
(0.175 -1.52201e-12 0)
(0.175 -8.94917e-13 0)
(0.175 -5.10925e-13 0)
(0.175 -2.81061e-13 0)
(0.175 -1.46678e-13 0)
(0.175 -7.03133e-14 0)
(0.175 -2.76322e-14 0)
(0.175 -2.33289e-15 0)
(0.175 1.8244e-14 0)
(0.175 4.85297e-14 0)
(0.175 1.12319e-13 0)
(0.175 2.56842e-13 0)
(0.175 5.63358e-13 0)
(0.175 1.14358e-12 0)
(0.175 2.30957e-12 0)
(0.175 2.27871e-12 0)
(0.225 -6.89697e-12 0)
(0.225 -7.26802e-12 0)
(0.225 -5.0819e-12 0)
(0.225 -3.31036e-12 0)
(0.225 -2.0757e-12 0)
(0.225 -1.24382e-12 0)
(0.225 -7.19701e-13 0)
(0.225 -4.00243e-13 0)
(0.225 -2.11053e-13 0)
(0.225 -1.02461e-13 0)
(0.225 -4.17291e-14 0)
(0.225 -6.68928e-15 0)
(0.225 1.98224e-14 0)
(0.225 5.63234e-14 0)
(0.225 1.31695e-13 0)
(0.225 2.99135e-13 0)
(0.225 6.46851e-13 0)
(0.225 1.27491e-12 0)
(0.225 2.41687e-12 0)
(0.225 2.32096e-12 0)
(0.275 -7.3275e-12 0)
(0.275 -7.85793e-12 0)
(0.275 -5.73032e-12 0)
(0.275 -3.83631e-12 0)
(0.275 -2.45426e-12 0)
(0.275 -1.49419e-12 0)
(0.275 -8.74219e-13 0)
(0.275 -4.89986e-13 0)
(0.275 -2.59922e-13 0)
(0.275 -1.27149e-13 0)
(0.275 -5.33814e-14 0)
(0.275 -1.26035e-14 0)
(0.275 1.48782e-14 0)
(0.275 4.90896e-14 0)
(0.275 1.19255e-13 0)
(0.275 2.7589e-13 0)
(0.275 6.0015e-13 0)
(0.275 1.16462e-12 0)
(0.275 2.13218e-12 0)
(0.275 2.00185e-12 0)
(0.325 -7.15116e-12 0)
(0.325 -7.74256e-12 0)
(0.325 -5.82353e-12 0)
(0.325 -3.98494e-12 0)
(0.325 -2.59281e-12 0)
(0.325 -1.59945e-12 0)
(0.325 -9.43952e-13 0)
(0.325 -5.31544e-13 0)
(0.325 -2.82374e-13 0)
(0.325 -1.38345e-13 0)
(0.325 -5.9576e-14 0)
(0.325 -1.89807e-14 0)
(0.325 3.16746e-15 0)
(0.325 2.53279e-14 0)
(0.325 7.24057e-14 0)
(0.325 1.84557e-13 0)
(0.325 4.25863e-13 0)
(0.325 8.3513e-13 0)
(0.325 1.52204e-12 0)
(0.325 1.38372e-12 0)
(0.375 -6.4202e-12 0)
(0.375 -6.97434e-12 0)
(0.375 -5.36909e-12 0)
(0.375 -3.73758e-12 0)
(0.375 -2.46667e-12 0)
(0.375 -1.53815e-12 0)
(0.375 -9.13315e-13 0)
(0.375 -5.14726e-13 0)
(0.375 -2.72141e-13 0)
(0.375 -1.3236e-13 0)
(0.375 -5.81538e-14 0)
(0.375 -2.44489e-14 0)
(0.375 -1.39992e-14 0)
(0.375 -1.28414e-14 0)
(0.375 -4.31824e-15 0)
(0.375 3.57596e-14 0)
(0.375 1.47942e-13 0)
(0.375 3.37491e-13 0)
(0.375 6.73753e-13 0)
(0.375 5.44262e-13 0)
(0.425 -5.22726e-12 0)
(0.425 -5.65695e-12 0)
(0.425 -4.43389e-12 0)
(0.425 -3.12891e-12 0)
(0.425 -2.09101e-12 0)
(0.425 -1.31581e-12 0)
(0.425 -7.83766e-13 0)
(0.425 -4.39577e-13 0)
(0.425 -2.28861e-13 0)
(0.425 -1.08699e-13 0)
(0.425 -4.83962e-14 0)
(0.425 -2.77451e-14 0)
(0.425 -3.42233e-14 0)
(0.425 -6.04826e-14 0)
(0.425 -1.00892e-13 0)
(0.425 -1.50467e-13 0)
(0.425 -1.95602e-13 0)
(0.425 -2.61757e-13 0)
(0.425 -3.12793e-13 0)
(0.425 -4.2621e-13 0)
(0.475 -3.69413e-12 0)
(0.475 -3.93191e-12 0)
(0.475 -3.13193e-12 0)
(0.475 -2.23795e-12 0)
(0.475 -1.51623e-12 0)
(0.475 -9.62818e-13 0)
(0.475 -5.73128e-13 0)
(0.475 -3.16301e-13 0)
(0.475 -1.58258e-13 0)
(0.475 -7.02514e-14 0)
(0.475 -3.12543e-14 0)
(0.475 -2.80863e-14 0)
(0.475 -5.45365e-14 0)
(0.475 -1.10956e-13 0)
(0.475 -2.0397e-13 0)
(0.475 -3.48893e-13 0)
(0.475 -5.59945e-13 0)
(0.475 -8.89746e-13 0)
(0.475 -1.33534e-12 0)
(0.475 -1.43389e-12 0)
(0.525 -1.9642e-12 0)
(0.525 -1.96793e-12 0)
(0.525 -1.61092e-12 0)
(0.525 -1.1768e-12 0)
(0.525 -8.19897e-13 0)
(0.525 -5.29388e-13 0)
(0.525 -3.12482e-13 0)
(0.525 -1.63549e-13 0)
(0.525 -7.1152e-14 0)
(0.525 -2.29415e-14 0)
(0.525 -9.34914e-15 0)
(0.525 -2.5444e-14 0)
(0.525 -7.19372e-14 0)
(0.525 -1.57101e-13 0)
(0.525 -2.99234e-13 0)
(0.525 -5.33052e-13 0)
(0.525 -8.99636e-13 0)
(0.525 -1.47516e-12 0)
(0.525 -2.29559e-12 0)
(0.525 -2.38688e-12 0)
(0.575 -1.9306e-13 0)
(0.575 4.93585e-14 0)
(0.575 -3.9876e-14 0)
(0.575 -7.79511e-14 0)
(0.575 -9.65017e-14 0)
(0.575 -7.81531e-14 0)
(0.575 -4.12463e-14 0)
(0.575 -5.25439e-15 0)
(0.575 1.8491e-14 0)
(0.575 2.54506e-14 0)
(0.575 1.35553e-14 0)
(0.575 -2.04944e-14 0)
(0.575 -8.40364e-14 0)
(0.575 -1.92306e-13 0)
(0.575 -3.7358e-13 0)
(0.575 -6.78837e-13 0)
(0.575 -1.17349e-12 0)
(0.575 -1.95398e-12 0)
(0.575 -3.10489e-12 0)
(0.575 -3.20063e-12 0)
(0.625 1.459e-12 0)
(0.625 1.92668e-12 0)
(0.625 1.404e-12 0)
(0.625 9.19286e-13 0)
(0.625 5.54822e-13 0)
(0.625 3.25149e-13 0)
(0.625 1.993e-13 0)
(0.625 1.33656e-13 0)
(0.625 9.60164e-14 0)
(0.625 6.67545e-14 0)
(0.625 3.33777e-14 0)
(0.625 -1.43961e-14 0)
(0.625 -8.92958e-14 0)
(0.625 -2.11572e-13 0)
(0.625 -4.1668e-13 0)
(0.625 -7.67297e-13 0)
(0.625 -1.34865e-12 0)
(0.625 -2.27412e-12 0)
(0.625 -3.68799e-12 0)
(0.625 -3.80183e-12 0)
(0.675 2.83714e-12 0)
(0.675 3.47422e-12 0)
(0.675 2.54966e-12 0)
(0.675 1.68488e-12 0)
(0.675 1.04385e-12 0)
(0.675 6.22329e-13 0)
(0.675 3.73156e-13 0)
(0.675 2.31815e-13 0)
(0.675 1.49169e-13 0)
(0.675 9.41295e-14 0)
(0.675 4.66205e-14 0)
(0.675 -8.48329e-15 0)
(0.675 -8.71146e-14 0)
(0.675 -2.12211e-13 0)
(0.675 -4.22467e-13 0)
(0.675 -7.86826e-13 0)
(0.675 -1.40369e-12 0)
(0.675 -2.39915e-12 0)
(0.675 -3.98677e-12 0)
(0.675 -4.13239e-12 0)
(0.725 3.79943e-12 0)
(0.725 4.51725e-12 0)
(0.725 3.25036e-12 0)
(0.725 2.11566e-12 0)
(0.725 1.30421e-12 0)
(0.725 7.73061e-13 0)
(0.725 4.56953e-13 0)
(0.725 2.75825e-13 0)
(0.725 1.70557e-13 0)
(0.725 1.03562e-13 0)
(0.725 5.12332e-14 0)
(0.725 -3.75362e-15 0)
(0.725 -7.7892e-14 0)
(0.725 -1.94169e-13 0)
(0.725 -3.90258e-13 0)
(0.725 -7.34672e-13 0)
(0.725 -1.33107e-12 0)
(0.725 -2.31168e-12 0)
(0.725 -3.96382e-12 0)
(0.725 -4.15285e-12 0)
(0.775 4.23159e-12 0)
(0.775 4.91304e-12 0)
(0.775 3.40338e-12 0)
(0.775 2.15523e-12 0)
(0.775 1.30752e-12 0)
(0.775 7.64164e-13 0)
(0.775 4.45097e-13 0)
(0.775 2.63735e-13 0)
(0.775 1.59546e-13 0)
(0.775 9.49625e-14 0)
(0.775 4.69543e-14 0)
(0.775 -7.42393e-16 0)
(0.775 -6.30633e-14 0)
(0.775 -1.60114e-13 0)
(0.775 -3.24648e-13 0)
(0.775 -6.17928e-13 0)
(0.775 -1.13923e-12 0)
(0.775 -2.01656e-12 0)
(0.775 -3.60642e-12 0)
(0.775 -3.84617e-12 0)
(0.825 4.04672e-12 0)
(0.825 4.56421e-12 0)
(0.825 2.97729e-12 0)
(0.825 1.81241e-12 0)
(0.825 1.07479e-12 0)
(0.825 6.15433e-13 0)
(0.825 3.52508e-13 0)
(0.825 2.05896e-13 0)
(0.825 1.22828e-13 0)
(0.825 7.23155e-14 0)
(0.825 3.57953e-14 0)
(0.825 4.98418e-16 0)
(0.825 -4.47908e-14 0)
(0.825 -1.15207e-13 0)
(0.825 -2.35599e-13 0)
(0.825 -4.53744e-13 0)
(0.825 -8.53777e-13 0)
(0.825 -1.54434e-12 0)
(0.825 -2.92914e-12 0)
(0.825 -3.21783e-12 0)
(0.875 3.23191e-12 0)
(0.875 3.48636e-12 0)
(0.875 2.06336e-12 0)
(0.875 1.19063e-12 0)
(0.875 6.86812e-13 0)
(0.875 3.82816e-13 0)
(0.875 2.15051e-13 0)
(0.875 1.24101e-13 0)
(0.875 7.34161e-14 0)
(0.875 4.30528e-14 0)
(0.875 2.13985e-14 0)
(0.875 5.99315e-16 0)
(0.875 -2.60425e-14 0)
(0.875 -6.76807e-14 0)
(0.875 -1.39161e-13 0)
(0.875 -2.70826e-13 0)
(0.875 -5.22604e-13 0)
(0.875 -9.65354e-13 0)
(0.875 -2.00042e-12 0)
(0.875 -2.31233e-12 0)
(0.925 1.91922e-12 0)
(0.925 1.93282e-12 0)
(0.925 9.71161e-13 0)
(0.925 5.15686e-13 0)
(0.925 2.87819e-13 0)
(0.925 1.53798e-13 0)
(0.925 8.40311e-14 0)
(0.925 4.79402e-14 0)
(0.925 2.83519e-14 0)
(0.925 1.67672e-14 0)
(0.925 8.53894e-15 0)
(0.925 5.5239e-16 0)
(0.925 -1.01429e-14 0)
(0.925 -2.70525e-14 0)
(0.925 -5.60943e-14 0)
(0.925 -1.10824e-13 0)
(0.925 -2.21773e-13 0)
(0.925 -4.15998e-13 0)
(0.925 -9.99944e-13 0)
(0.925 -1.26114e-12 0)
(0.975 5.93172e-13 0)
(0.975 5.54866e-13 0)
(0.975 2.22181e-13 0)
(0.975 1.03527e-13 0)
(0.975 5.55217e-14 0)
(0.975 2.75996e-14 0)
(0.975 1.44477e-14 0)
(0.975 8.15894e-15 0)
(0.975 4.83536e-15 0)
(0.975 2.87206e-15 0)
(0.975 1.48062e-15 0)
(0.975 5.84238e-17 0)
(0.975 -2.08296e-15 0)
(0.975 -5.54024e-15 0)
(0.975 -1.11995e-14 0)
(0.975 -2.2098e-14 0)
(0.975 -4.65255e-14 0)
(0.975 -8.74302e-14 0)
(0.975 -2.60762e-13 0)
(0.975 -3.64044e-13 0)
)
;

boundaryField
{
    top
    {
        type            fixedValue;
        value           uniform (1 0 0);
    }
    bottom
    {
        type            fixedValue;
        value           uniform (0 0 0);
    }
    inlet
    {
        type            zeroGradient;
    }
    outlet
    {
        type            zeroGradient;
    }
    frontAndBack
    {
        type            empty;
    }
}


// ************************************************************************* //
