/*--------------------------------*- C++ -*----------------------------------*\
  =========                 |
  \\      /  F ield         | OpenFOAM: The Open Source CFD Toolbox
   \\    /   O peration     | Website:  https://openfoam.org
    \\  /    A nd           | Version:  9
     \\/     M anipulation  |
\*---------------------------------------------------------------------------*/
FoamFile
{
    format      ascii;
    class       volScalarField;
    location    "4.6";
    object      p;
}
// * * * * * * * * * * * * * * * * * * * * * * * * * * * * * * * * * * * * * //

dimensions      [0 2 -2 0 0 0 0];

internalField   nonuniform List<scalar> 
400
(
1.23244e-11
2.04245e-11
1.97499e-11
1.87876e-11
1.72055e-11
1.53312e-11
1.33783e-11
1.13912e-11
9.40318e-12
7.43101e-12
5.46563e-12
3.49449e-12
1.51314e-12
-4.77619e-13
-2.47581e-12
-4.48503e-12
-6.4534e-12
-8.23895e-12
-1.04957e-11
-6.63125e-12
1.16909e-11
1.94645e-11
1.87305e-11
1.81765e-11
1.68347e-11
1.51074e-11
1.32488e-11
1.13187e-11
9.36429e-12
7.4115e-12
5.45732e-12
3.49334e-12
1.51862e-12
-4.62146e-13
-2.43962e-12
-4.40688e-12
-6.28779e-12
-7.85903e-12
-1.02482e-11
-6.46243e-12
1.18192e-11
1.95476e-11
1.81553e-11
1.77799e-11
1.65682e-11
1.49315e-11
1.31403e-11
1.12545e-11
9.32719e-12
7.39049e-12
5.44611e-12
3.48891e-12
1.52057e-12
-4.51938e-13
-2.41451e-12
-4.35773e-12
-6.20266e-12
-7.67261e-12
-1.05772e-11
-6.69967e-12
1.22725e-11
2.03989e-11
1.80339e-11
1.76125e-11
1.64243e-11
1.48175e-11
1.30618e-11
1.1203e-11
9.29382e-12
7.36866e-12
5.43213e-12
3.48076e-12
1.51762e-12
-4.49487e-13
-2.40561e-12
-4.3454e-12
-6.20302e-12
-7.68564e-12
-1.12444e-11
-7.06749e-12
1.27697e-11
2.15792e-11
1.81473e-11
1.75746e-11
1.63542e-11
1.47422e-11
1.30019e-11
1.11589e-11
9.26168e-12
7.34546e-12
5.41593e-12
3.46964e-12
1.5104e-12
-4.54025e-13
-2.40952e-12
-4.35832e-12
-6.25467e-12
-7.79503e-12
-1.19909e-11
-7.41725e-12
1.32286e-11
2.28548e-11
1.8377e-11
1.76064e-11
1.63279e-11
1.469e-11
1.29525e-11
1.11184e-11
9.22984e-12
7.32111e-12
5.39776e-12
3.45612e-12
1.49979e-12
-4.63859e-13
-2.42234e-12
-4.38602e-12
-6.33076e-12
-7.93803e-12
-1.26757e-11
-7.70175e-12
1.36335e-11
2.40962e-11
1.86552e-11
1.7672e-11
1.6325e-11
1.46506e-11
1.29083e-11
1.10794e-11
9.19803e-12
7.29595e-12
5.37823e-12
3.44082e-12
1.48671e-12
-4.76952e-13
-2.43995e-12
-4.41944e-12
-6.41174e-12
-8.07658e-12
-1.3227e-11
-7.91287e-12
1.39681e-11
2.51978e-11
1.89275e-11
1.77398e-11
1.63273e-11
1.46148e-11
1.28651e-11
1.10399e-11
9.16537e-12
7.27006e-12
5.35804e-12
3.42462e-12
1.47247e-12
-4.91234e-13
-2.45792e-12
-4.4495e-12
-6.48013e-12
-8.1829e-12
-1.35947e-11
-8.0427e-12
1.42226e-11
2.60769e-11
1.91499e-11
1.77851e-11
1.63203e-11
1.45753e-11
1.28195e-11
1.0999e-11
9.13206e-12
7.24395e-12
5.33771e-12
3.40852e-12
1.45866e-12
-5.04209e-13
-2.47204e-12
-4.46842e-12
-6.52189e-12
-8.23576e-12
-1.37508e-11
-8.08907e-12
1.43894e-11
2.66737e-11
1.92921e-11
1.77923e-11
1.62952e-11
1.4529e-11
1.27707e-11
1.09568e-11
9.09856e-12
7.21822e-12
5.31814e-12
3.39353e-12
1.44689e-12
-5.13475e-13
-2.4786e-12
-4.47031e-12
-6.52713e-12
-8.22309e-12
-1.36848e-11
-8.05258e-12
1.44628e-11
2.69486e-11
1.93374e-11
1.77553e-11
1.62497e-11
1.44762e-11
1.27206e-11
1.09148e-11
9.06609e-12
7.19376e-12
5.29993e-12
3.38063e-12
1.43806e-12
-5.17566e-13
-2.47511e-12
-4.45219e-12
-6.49145e-12
-8.14141e-12
-1.34018e-11
-7.9366e-12
1.44383e-11
2.68828e-11
1.92818e-11
1.76771e-11
1.61875e-11
1.44207e-11
1.26719e-11
1.08758e-11
9.03634e-12
7.17194e-12
5.28415e-12
3.37006e-12
1.43254e-12
-5.15652e-13
-2.46119e-12
-4.41369e-12
-6.41536e-12
-7.9945e-12
-1.29203e-11
-7.7466e-12
1.43112e-11
2.6478e-11
1.91355e-11
1.7569e-11
1.61172e-11
1.43691e-11
1.26302e-11
1.08432e-11
9.0119e-12
7.15369e-12
5.27118e-12
3.36227e-12
1.43092e-12
-5.08058e-13
-2.43796e-12
-4.35818e-12
-6.30507e-12
-7.79383e-12
-1.22709e-11
-7.49027e-12
1.40799e-11
2.57607e-11
1.89232e-11
1.7451e-11
1.60522e-11
1.43302e-11
1.26007e-11
1.08201e-11
8.99461e-12
7.14059e-12
5.26202e-12
3.35741e-12
1.43274e-12
-4.97017e-13
-2.40878e-12
-4.29231e-12
-6.17177e-12
-7.55729e-12
-1.14952e-11
-7.17825e-12
1.37455e-11
2.47858e-11
1.86851e-11
1.73493e-11
1.60084e-11
1.43129e-11
1.25886e-11
1.08098e-11
8.98594e-12
7.13355e-12
5.2569e-12
3.35557e-12
1.43597e-12
-4.84757e-13
-2.37913e-12
-4.22499e-12
-6.03136e-12
-7.31116e-12
-1.06476e-11
-6.82342e-12
1.33174e-11
2.36399e-11
1.84741e-11
1.72955e-11
1.60021e-11
1.43256e-11
1.25981e-11
1.08143e-11
8.9868e-12
7.1326e-12
5.255e-12
3.35503e-12
1.43942e-12
-4.74485e-13
-2.35407e-12
-4.16776e-12
-5.9043e-12
-7.0855e-12
-9.79404e-12
-6.44342e-12
1.28025e-11
2.24447e-11
1.83594e-11
1.73197e-11
1.60483e-11
1.43741e-11
1.26307e-11
1.08332e-11
8.99754e-12
7.13743e-12
5.25637e-12
3.35524e-12
1.4411e-12
-4.69453e-13
-2.34098e-12
-4.13256e-12
-5.81311e-12
-6.91785e-12
-9.01155e-12
-6.05699e-12
1.2276e-11
2.14365e-11
1.8458e-11
1.74727e-11
1.61668e-11
1.44656e-11
1.26886e-11
1.08669e-11
9.01669e-12
7.14753e-12
5.2605e-12
3.3559e-12
1.43864e-12
-4.74042e-13
-2.3471e-12
-4.13533e-12
-5.78875e-12
-6.86857e-12
-8.42927e-12
-5.71645e-12
1.19784e-11
2.10576e-11
1.8985e-11
1.78369e-11
1.6392e-11
1.46122e-11
1.27759e-11
1.09178e-11
9.04505e-12
7.16306e-12
5.26726e-12
3.35536e-12
1.43067e-12
-4.91432e-13
-2.38034e-12
-4.19348e-12
-5.87224e-12
-7.03363e-12
-8.27393e-12
-5.58217e-12
1.23467e-11
2.16892e-11
1.99321e-11
1.83924e-11
1.67043e-11
1.47971e-11
1.28813e-11
1.09779e-11
9.07965e-12
7.18236e-12
5.27537e-12
3.35418e-12
1.41879e-12
-5.20009e-13
-2.43603e-12
-4.29752e-12
-6.05688e-12
-7.40504e-12
-8.67799e-12
-5.89138e-12
)
;

boundaryField
{
    top
    {
        type            zeroGradient;
    }
    bottom
    {
        type            zeroGradient;
    }
    inlet
    {
        type            fixedValue;
        value           uniform 0;
    }
    outlet
    {
        type            fixedValue;
        value           uniform 0;
    }
    frontAndBack
    {
        type            empty;
    }
}


// ************************************************************************* //
