/*--------------------------------*- C++ -*----------------------------------*\
  =========                 |
  \\      /  F ield         | OpenFOAM: The Open Source CFD Toolbox
   \\    /   O peration     | Website:  https://openfoam.org
    \\  /    A nd           | Version:  9
     \\/     M anipulation  |
\*---------------------------------------------------------------------------*/
FoamFile
{
    format      ascii;
    class       surfaceScalarField;
    location    "4.6";
    object      phi;
}
// * * * * * * * * * * * * * * * * * * * * * * * * * * * * * * * * * * * * * //

dimensions      [0 3 -1 0 0 0 0];

internalField   nonuniform List<scalar> 
760
(
1.25e-06
-7.54887e-17
1.25e-06
-6.28185e-17
1.25e-06
-2.99201e-17
1.25e-06
-1.70195e-17
1.25e-06
-9.76973e-18
1.25e-06
-5.3689e-18
1.25e-06
-2.94202e-18
1.25e-06
-1.54054e-18
1.25e-06
-7.52156e-19
1.25e-06
-3.42791e-19
1.25e-06
-1.29773e-19
1.25e-06
1.96637e-21
1.25e-06
1.22563e-19
1.25e-06
3.18351e-19
1.25e-06
7.57098e-19
1.25e-06
1.9145e-18
1.25e-06
4.56735e-18
1.25e-06
1.02054e-17
1.25e-06
3.21547e-17
3.71165e-17
3.75e-06
-1.81734e-16
3.75e-06
-1.70298e-16
3.75e-06
-9.73669e-17
3.75e-06
-5.79505e-17
3.75e-06
-3.4198e-17
3.75e-06
-1.94579e-17
3.75e-06
-1.08686e-17
3.75e-06
-5.851e-18
3.75e-06
-2.97712e-18
3.75e-06
-1.39034e-18
3.75e-06
-5.21121e-19
3.75e-06
3.54876e-21
3.75e-06
4.56601e-19
3.75e-06
1.17173e-18
3.75e-06
2.73425e-18
3.75e-06
6.50289e-18
3.75e-06
1.4912e-17
3.75e-06
3.20166e-17
3.75e-06
7.80352e-17
8.24708e-17
6.25e-06
-2.76407e-16
6.25e-06
-2.77311e-16
6.25e-06
-1.76282e-16
6.25e-06
-1.09164e-16
6.25e-06
-6.61486e-17
6.25e-06
-3.8549e-17
6.25e-06
-2.18771e-17
6.25e-06
-1.19655e-17
6.25e-06
-6.20497e-18
6.25e-06
-2.95486e-18
6.25e-06
-1.14739e-18
6.25e-06
-6.91031e-20
6.25e-06
8.24157e-19
6.25e-06
2.16576e-18
6.25e-06
5.03254e-18
6.25e-06
1.16334e-17
6.25e-06
2.5841e-17
6.25e-06
5.3454e-17
6.25e-06
1.13231e-16
1.13315e-16
8.75e-06
-3.47296e-16
8.75e-06
-3.61722e-16
8.75e-06
-2.46215e-16
8.75e-06
-1.57989e-16
8.75e-06
-9.80521e-17
8.75e-06
-5.82747e-17
8.75e-06
-3.35245e-17
8.75e-06
-1.85567e-17
8.75e-06
-9.73902e-18
8.75e-06
-4.70485e-18
8.75e-06
-1.89565e-18
8.75e-06
-2.51898e-19
8.75e-06
1.03219e-18
8.75e-06
2.85427e-18
8.75e-06
6.65349e-18
8.75e-06
1.51769e-17
8.75e-06
3.30645e-17
8.75e-06
6.61243e-17
8.75e-06
1.29322e-16
1.25424e-16
1.125e-05
-3.87162e-16
1.125e-05
-4.12251e-16
1.125e-05
-2.94557e-16
1.125e-05
-1.94654e-16
1.125e-05
-1.2337e-16
1.125e-05
-7.45536e-17
1.125e-05
-4.33961e-17
1.125e-05
-2.42347e-17
1.125e-05
-1.28198e-17
1.125e-05
-6.25348e-18
1.125e-05
-2.59678e-18
1.125e-05
-5.34438e-19
1.125e-05
9.39009e-19
1.125e-05
2.86909e-18
1.125e-05
6.84062e-18
1.125e-05
1.56873e-17
1.125e-05
3.40266e-17
1.125e-05
6.65698e-17
1.125e-05
1.24146e-16
1.17673e-16
1.375e-05
-3.94079e-16
1.375e-05
-4.25046e-16
1.375e-05
-3.14671e-16
1.375e-05
-2.12988e-16
1.375e-05
-1.37429e-16
1.375e-05
-8.42226e-17
1.375e-05
-4.94942e-17
1.375e-05
-2.78076e-17
1.375e-05
-1.47677e-17
1.375e-05
-7.23441e-18
1.375e-05
-3.08349e-18
1.375e-05
-8.69386e-19
1.375e-05
4.8681e-19
1.375e-05
2.02353e-18
1.375e-05
5.22669e-18
1.375e-05
1.25685e-17
1.375e-05
2.80006e-17
1.375e-05
5.45495e-17
1.375e-05
9.96861e-17
9.21661e-17
1.625e-05
-3.69355e-16
1.625e-05
-4.00884e-16
1.625e-05
-3.04785e-16
1.625e-05
-2.10264e-16
1.625e-05
-1.37746e-16
1.625e-05
-8.54074e-17
1.625e-05
-5.0553e-17
1.625e-05
-2.84786e-17
1.625e-05
-1.50975e-17
1.625e-05
-7.37755e-18
1.625e-05
-3.21592e-18
1.625e-05
-1.19018e-18
1.625e-05
-2.99468e-19
1.625e-05
3.39572e-19
1.625e-05
1.86141e-18
1.625e-05
6.02638e-18
1.625e-05
1.5677e-17
1.625e-05
3.20079e-17
1.625e-05
5.98857e-17
5.24689e-17
1.875e-05
-3.16988e-16
1.875e-05
-3.44015e-16
1.875e-05
-2.66903e-16
1.875e-05
-1.86922e-16
1.875e-05
-1.24059e-16
1.875e-05
-7.76681e-17
1.875e-05
-4.61834e-17
1.875e-05
-2.59745e-17
1.875e-05
-1.36437e-17
1.875e-05
-6.57372e-18
1.875e-05
-2.91039e-18
1.875e-05
-1.42749e-18
1.875e-05
-1.31863e-18
1.875e-05
-1.99699e-18
1.875e-05
-2.85686e-18
1.875e-05
-3.10084e-18
1.875e-05
-1.255e-18
1.875e-05
2.11334e-18
1.875e-05
9.86808e-18
3.20058e-18
2.125e-05
-2.42794e-16
2.125e-05
-2.61119e-16
2.125e-05
-2.05957e-16
2.125e-05
-1.46065e-16
2.125e-05
-9.81606e-17
2.125e-05
-6.19961e-17
2.125e-05
-3.69176e-17
2.125e-05
-2.05705e-17
2.125e-05
-1.05443e-17
2.125e-05
-4.88531e-18
2.125e-05
-2.17933e-18
2.125e-05
-1.52531e-18
2.125e-05
-2.42616e-18
2.125e-05
-4.67318e-18
2.125e-05
-8.29634e-18
2.125e-05
-1.35834e-17
2.125e-05
-2.05454e-17
2.125e-05
-3.13253e-17
2.125e-05
-4.48806e-17
-5.06448e-17
2.375e-05
-1.53992e-16
2.375e-05
-1.60627e-16
2.375e-05
-1.29075e-16
2.375e-05
-9.28987e-17
2.375e-05
-6.35393e-17
2.375e-05
-4.05811e-17
2.375e-05
-2.40913e-17
2.375e-05
-1.30581e-17
2.375e-05
-6.25219e-18
2.375e-05
-2.55021e-18
2.375e-05
-1.11417e-18
2.375e-05
-1.46492e-18
2.375e-05
-3.45232e-18
2.375e-05
-7.30576e-18
2.375e-05
-1.37065e-17
2.375e-05
-2.40076e-17
2.375e-05
-3.97272e-17
2.375e-05
-6.43793e-17
2.375e-05
-9.89039e-17
-1.04011e-16
2.625e-05
-5.87165e-17
2.625e-05
-5.21842e-17
2.625e-05
-4.48631e-17
2.625e-05
-3.40774e-17
2.625e-05
-2.48812e-17
2.625e-05
-1.6495e-17
2.625e-05
-9.6091e-18
2.625e-05
-4.60001e-18
2.625e-05
-1.44129e-18
2.625e-05
5.39107e-20
2.625e-05
1.05773e-19
2.625e-05
-1.25411e-18
2.625e-05
-4.25093e-18
2.625e-05
-9.52483e-18
2.625e-05
-1.83305e-17
2.625e-05
-3.30059e-17
2.625e-05
-5.64488e-17
2.625e-05
-9.3373e-17
2.625e-05
-1.47114e-16
-1.52099e-16
2.875e-05
3.44527e-17
2.875e-05
5.39223e-17
2.875e-05
3.72521e-17
2.875e-05
2.30034e-17
2.875e-05
1.25519e-17
2.875e-05
6.76779e-18
2.875e-05
4.31072e-18
2.875e-05
3.48295e-18
2.875e-05
3.10269e-18
2.875e-05
2.50224e-18
2.875e-05
1.27505e-18
2.875e-05
-9.51486e-19
2.875e-05
-4.72975e-18
2.875e-05
-1.10153e-17
2.875e-05
-2.1535e-17
2.875e-05
-3.93967e-17
2.875e-05
-6.869e-17
2.875e-05
-1.15146e-16
2.875e-05
-1.85056e-16
-1.90615e-16
3.125e-05
1.16924e-16
3.125e-05
1.47258e-16
3.125e-05
1.07799e-16
3.125e-05
7.10098e-17
3.125e-05
4.35908e-17
3.125e-05
2.58279e-17
3.125e-05
1.5585e-17
3.125e-05
9.93368e-18
3.125e-05
6.65813e-18
3.125e-05
4.37048e-18
3.125e-05
2.17279e-18
3.125e-05
-6.27562e-19
3.125e-05
-4.82281e-18
3.125e-05
-1.15542e-17
3.125e-05
-2.28711e-17
3.125e-05
-4.23444e-17
3.125e-05
-7.49763e-17
3.125e-05
-1.27299e-16
3.125e-05
-2.09119e-16
-2.15977e-16
3.375e-05
1.8066e-16
3.375e-05
2.1791e-16
3.375e-05
1.58106e-16
3.375e-05
1.03592e-16
3.375e-05
6.39829e-17
3.375e-05
3.80086e-17
3.375e-05
2.25925e-17
3.375e-05
1.37988e-17
3.375e-05
8.68721e-18
3.375e-05
5.36763e-18
3.375e-05
2.65316e-18
3.375e-05
-3.48285e-19
3.375e-05
-4.51029e-18
3.375e-05
-1.10798e-17
3.375e-05
-2.21475e-17
3.375e-05
-4.14674e-17
3.375e-05
-7.45194e-17
3.375e-05
-1.28338e-16
3.375e-05
-2.16686e-16
-2.25551e-16
3.625e-05
2.18583e-16
3.625e-05
2.57236e-16
3.625e-05
1.81423e-16
3.625e-05
1.16388e-16
3.625e-05
7.11543e-17
3.625e-05
4.18493e-17
3.625e-05
2.45324e-17
3.625e-05
1.4662e-17
3.625e-05
8.9701e-18
3.625e-05
5.38974e-18
3.625e-05
2.6659e-18
3.625e-05
-1.33378e-19
3.625e-05
-3.86004e-18
3.625e-05
-9.66263e-18
3.625e-05
-1.94959e-17
3.625e-05
-3.68716e-17
3.625e-05
-6.73327e-17
3.625e-05
-1.17961e-16
3.625e-05
-2.0639e-16
-2.17766e-16
3.875e-05
2.25709e-16
3.875e-05
2.59088e-16
3.875e-05
1.7423e-16
3.875e-05
1.08243e-16
3.875e-05
6.49361e-17
3.875e-05
3.75632e-17
3.875e-05
2.16968e-17
3.875e-05
1.27727e-17
3.875e-05
7.66712e-18
3.875e-05
4.53993e-18
3.875e-05
2.24236e-18
3.875e-05
-1.5519e-20
3.875e-05
-2.95743e-18
3.875e-05
-7.52273e-18
3.875e-05
-1.52882e-17
3.875e-05
-2.92419e-17
3.875e-05
-5.43865e-17
3.875e-05
-9.71933e-17
3.875e-05
-1.78489e-16
-1.92499e-16
4.125e-05
1.99476e-16
4.125e-05
2.21296e-16
4.125e-05
1.38254e-16
4.125e-05
8.21487e-17
4.125e-05
4.81171e-17
4.125e-05
2.72086e-17
4.125e-05
1.54483e-17
4.125e-05
8.98572e-18
4.125e-05
5.34334e-18
4.125e-05
3.1323e-18
4.125e-05
1.5469e-18
4.125e-05
1.68932e-20
4.125e-05
-1.93752e-18
4.125e-05
-5.00341e-18
4.125e-05
-1.0246e-17
4.125e-05
-1.98022e-17
4.125e-05
-3.76573e-17
4.125e-05
-6.87685e-17
4.125e-05
-1.35272e-16
-1.51333e-16
4.375e-05
1.42752e-16
4.375e-05
1.49391e-16
4.375e-05
8.25437e-17
4.375e-05
4.63454e-17
4.375e-05
2.64302e-17
4.375e-05
1.4509e-17
4.375e-05
8.07049e-18
4.375e-05
4.63826e-18
4.375e-05
2.75978e-18
4.375e-05
1.61386e-18
4.375e-05
7.99978e-19
4.375e-05
3.10004e-20
4.375e-05
-9.76572e-19
4.375e-05
-2.57739e-18
4.375e-05
-5.29761e-18
4.375e-05
-1.03357e-17
4.375e-05
-2.02218e-17
4.375e-05
-3.75466e-17
4.375e-05
-8.2307e-17
-9.84945e-17
4.625e-05
6.30856e-17
4.625e-05
6.04814e-17
4.625e-05
2.69774e-17
4.625e-05
1.38906e-17
4.625e-05
7.77954e-18
4.625e-05
4.06561e-18
4.625e-05
2.20098e-18
4.625e-05
1.25899e-18
4.625e-05
7.49358e-19
4.625e-05
4.42501e-19
4.625e-05
2.33561e-19
4.625e-05
2.35261e-20
4.625e-05
-2.69737e-19
4.625e-05
-7.30603e-19
4.625e-05
-1.5222e-18
4.625e-05
-3.01119e-18
4.625e-05
-6.1292e-18
4.625e-05
-1.13335e-17
4.625e-05
-3.01034e-17
-4.07685e-17
4.875e-05
4.875e-05
4.875e-05
4.875e-05
4.875e-05
4.875e-05
4.875e-05
4.875e-05
4.875e-05
4.875e-05
4.875e-05
4.875e-05
4.875e-05
4.875e-05
4.875e-05
4.875e-05
4.875e-05
4.875e-05
4.875e-05
)
;

boundaryField
{
    top
    {
        type            calculated;
        value           uniform 0;
    }
    bottom
    {
        type            calculated;
        value           uniform 0;
    }
    inlet
    {
        type            calculated;
        value           nonuniform List<scalar> 
20
(
-1.25e-06
-3.75e-06
-6.25e-06
-8.75e-06
-1.125e-05
-1.375e-05
-1.625e-05
-1.875e-05
-2.125e-05
-2.375e-05
-2.625e-05
-2.875e-05
-3.125e-05
-3.375e-05
-3.625e-05
-3.875e-05
-4.125e-05
-4.375e-05
-4.625e-05
-4.875e-05
)
;
    }
    outlet
    {
        type            calculated;
        value           nonuniform List<scalar> 
20
(
1.25e-06
3.75e-06
6.25e-06
8.75e-06
1.125e-05
1.375e-05
1.625e-05
1.875e-05
2.125e-05
2.375e-05
2.625e-05
2.875e-05
3.125e-05
3.375e-05
3.625e-05
3.875e-05
4.125e-05
4.375e-05
4.625e-05
4.875e-05
)
;
    }
    frontAndBack
    {
        type            empty;
        value           nonuniform List<scalar> 0();
    }
}


// ************************************************************************* //
