/*--------------------------------*- C++ -*----------------------------------*\
  =========                 |
  \\      /  F ield         | OpenFOAM: The Open Source CFD Toolbox
   \\    /   O peration     | Website:  https://openfoam.org
    \\  /    A nd           | Version:  9
     \\/     M anipulation  |
\*---------------------------------------------------------------------------*/
FoamFile
{
    format      ascii;
    class       volVectorField;
    location    "4.6";
    object      U;
}
// * * * * * * * * * * * * * * * * * * * * * * * * * * * * * * * * * * * * * //

dimensions      [0 1 -1 0 0 0 0];

internalField   nonuniform List<vector> 
400
(
(0.025 -3.69821e-13 0)
(0.025 -2.96225e-13 0)
(0.025 -1.24942e-13 0)
(0.025 -6.6634e-14 0)
(0.025 -3.67592e-14 0)
(0.025 -1.94813e-14 0)
(0.025 -1.04963e-14 0)
(0.025 -5.24937e-15 0)
(0.025 -2.36659e-15 0)
(0.025 -1.00882e-15 0)
(0.025 -3.68066e-16 0)
(0.025 5.05478e-17 0)
(0.025 4.82279e-16 0)
(0.025 1.22123e-15 0)
(0.025 2.92523e-15 0)
(0.025 7.7779e-15 0)
(0.025 1.94218e-14 0)
(0.025 4.62733e-14 0)
(0.025 1.624e-13 0)
(0.025 1.90233e-13 0)
(0.075 -1.27248e-12 0)
(0.075 -1.1317e-12 0)
(0.075 -5.91232e-13 0)
(0.075 -3.39404e-13 0)
(0.075 -1.96005e-13 0)
(0.075 -1.08964e-13 0)
(0.075 -5.98991e-14 0)
(0.075 -3.1673e-14 0)
(0.075 -1.57057e-14 0)
(0.075 -7.13125e-15 0)
(0.075 -2.55331e-15 0)
(0.075 2.25483e-16 0)
(0.075 2.71509e-15 0)
(0.075 6.7963e-15 0)
(0.075 1.59567e-14 0)
(0.075 3.90788e-14 0)
(0.075 9.19312e-14 0)
(0.075 2.04552e-13 0)
(0.075 5.55052e-13 0)
(0.075 6.09133e-13 0)
(0.125 -2.31344e-12 0)
(0.125 -2.24671e-12 0)
(0.125 -1.35704e-12 0)
(0.125 -8.21095e-13 0)
(0.125 -4.89763e-13 0)
(0.125 -2.81616e-13 0)
(0.125 -1.58364e-13 0)
(0.125 -8.58123e-14 0)
(0.125 -4.4029e-14 0)
(0.125 -2.07445e-14 0)
(0.125 -7.88195e-15 0)
(0.125 -1.10385e-16 0)
(0.125 6.55624e-15 0)
(0.125 1.68892e-14 0)
(0.125 3.92387e-14 0)
(0.125 9.17634e-14 0)
(0.125 2.06811e-13 0)
(0.125 4.36376e-13 0)
(0.125 9.81751e-13 0)
(0.125 1.00971e-12 0)
(0.175 -3.18313e-12 0)
(0.175 -3.2555e-12 0)
(0.175 -2.14666e-12 0)
(0.175 -1.35218e-12 0)
(0.175 -8.28339e-13 0)
(0.175 -4.87034e-13 0)
(0.175 -2.78036e-13 0)
(0.175 -1.52948e-13 0)
(0.175 -7.98217e-14 0)
(0.175 -3.82972e-14 0)
(0.175 -1.5119e-14 0)
(0.175 -1.34561e-15 0)
(0.175 9.86151e-15 0)
(0.175 2.63447e-14 0)
(0.175 6.10765e-14 0)
(0.175 1.39745e-13 0)
(0.175 3.06582e-13 0)
(0.175 6.22368e-13 0)
(0.175 1.25694e-12 0)
(0.175 1.24014e-12 0)
(0.225 -3.75356e-12 0)
(0.225 -3.9555e-12 0)
(0.225 -2.76573e-12 0)
(0.225 -1.80162e-12 0)
(0.225 -1.12968e-12 0)
(0.225 -6.76901e-13 0)
(0.225 -3.91651e-13 0)
(0.225 -2.17814e-13 0)
(0.225 -1.14863e-13 0)
(0.225 -5.58198e-14 0)
(0.225 -2.28221e-14 0)
(0.225 -3.75155e-15 0)
(0.225 1.06957e-14 0)
(0.225 3.0574e-14 0)
(0.225 7.15979e-14 0)
(0.225 1.62744e-13 0)
(0.225 3.52008e-13 0)
(0.225 6.93822e-13 0)
(0.225 1.31534e-12 0)
(0.225 1.26314e-12 0)
(0.275 -3.98786e-12 0)
(0.275 -4.27655e-12 0)
(0.275 -3.11863e-12 0)
(0.275 -2.08786e-12 0)
(0.275 -1.33569e-12 0)
(0.275 -8.13129e-13 0)
(0.275 -4.75741e-13 0)
(0.275 -2.66663e-13 0)
(0.275 -1.41508e-13 0)
(0.275 -6.92847e-14 0)
(0.275 -2.91748e-14 0)
(0.275 -6.99917e-15 0)
(0.275 7.99283e-15 0)
(0.275 2.66048e-14 0)
(0.275 6.4804e-14 0)
(0.275 1.50089e-13 0)
(0.275 3.26567e-13 0)
(0.275 6.3376e-13 0)
(0.275 1.16039e-12 0)
(0.275 1.08945e-12 0)
(0.325 -3.89188e-12 0)
(0.325 -4.21376e-12 0)
(0.325 -3.16933e-12 0)
(0.325 -2.16874e-12 0)
(0.325 -1.41106e-12 0)
(0.325 -8.70398e-13 0)
(0.325 -5.13699e-13 0)
(0.325 -2.89296e-13 0)
(0.325 -1.5376e-13 0)
(0.325 -7.54135e-14 0)
(0.325 -3.25658e-14 0)
(0.325 -1.04722e-14 0)
(0.325 1.60807e-15 0)
(0.325 1.36577e-14 0)
(0.325 3.92836e-14 0)
(0.325 1.0037e-13 0)
(0.325 2.31693e-13 0)
(0.325 4.54436e-13 0)
(0.325 8.28304e-13 0)
(0.325 7.53021e-13 0)
(0.375 -3.49406e-12 0)
(0.375 -3.79564e-12 0)
(0.375 -2.92198e-12 0)
(0.375 -2.03408e-12 0)
(0.375 -1.34239e-12 0)
(0.375 -8.37025e-13 0)
(0.375 -4.97038e-13 0)
(0.375 -2.80183e-13 0)
(0.375 -1.48209e-13 0)
(0.375 -7.21902e-14 0)
(0.375 -3.18056e-14 0)
(0.375 -1.34364e-14 0)
(0.375 -7.75184e-15 0)
(0.375 -7.11729e-15 0)
(0.375 -2.47728e-15 0)
(0.375 1.93774e-14 0)
(0.375 8.04354e-14 0)
(0.375 1.83605e-13 0)
(0.375 3.6661e-13 0)
(0.375 2.96135e-13 0)
(0.425 -2.84481e-12 0)
(0.425 -3.07865e-12 0)
(0.425 -2.41302e-12 0)
(0.425 -1.7028e-12 0)
(0.425 -1.13791e-12 0)
(0.425 -7.16022e-13 0)
(0.425 -4.26553e-13 0)
(0.425 -2.39309e-13 0)
(0.425 -1.24707e-13 0)
(0.425 -5.93466e-14 0)
(0.425 -2.64906e-14 0)
(0.425 -1.52127e-14 0)
(0.425 -1.87846e-14 0)
(0.425 -3.30624e-14 0)
(0.425 -5.5032e-14 0)
(0.425 -8.199e-14 0)
(0.425 -1.06527e-13 0)
(0.425 -1.42548e-13 0)
(0.425 -1.70305e-13 0)
(0.425 -2.32033e-13 0)
(0.475 -2.0104e-12 0)
(0.475 -2.13978e-12 0)
(0.475 -1.70445e-12 0)
(0.475 -1.2179e-12 0)
(0.475 -8.25069e-13 0)
(0.475 -5.23932e-13 0)
(0.475 -3.11971e-13 0)
(0.475 -1.72252e-13 0)
(0.475 -8.63067e-14 0)
(0.475 -3.84438e-14 0)
(0.475 -1.71601e-14 0)
(0.475 -1.53933e-14 0)
(0.475 -2.98299e-14 0)
(0.475 -6.055e-14 0)
(0.475 -1.11145e-13 0)
(0.475 -1.89975e-13 0)
(0.475 -3.04824e-13 0)
(0.475 -4.84317e-13 0)
(0.475 -7.26806e-13 0)
(0.475 -7.80473e-13 0)
(0.525 -1.06887e-12 0)
(0.525 -1.07087e-12 0)
(0.525 -8.76659e-13 0)
(0.525 -6.40369e-13 0)
(0.525 -4.46094e-13 0)
(0.525 -2.88066e-13 0)
(0.525 -1.70147e-13 0)
(0.525 -8.92062e-14 0)
(0.525 -3.89069e-14 0)
(0.525 -1.2698e-14 0)
(0.525 -5.22267e-15 0)
(0.525 -1.39323e-14 0)
(0.525 -3.9253e-14 0)
(0.525 -8.5648e-14 0)
(0.525 -1.63027e-13 0)
(0.525 -2.90207e-13 0)
(0.525 -4.89668e-13 0)
(0.525 -8.0288e-13 0)
(0.525 -1.24941e-12 0)
(0.525 -1.29914e-12 0)
(0.575 -1.04924e-13 0)
(0.575 2.70226e-14 0)
(0.575 -2.16209e-14 0)
(0.575 -4.23292e-14 0)
(0.575 -5.2383e-14 0)
(0.575 -4.25059e-14 0)
(0.575 -2.25822e-14 0)
(0.575 -3.11717e-15 0)
(0.575 9.83176e-15 0)
(0.575 1.36824e-14 0)
(0.575 7.29398e-15 0)
(0.575 -1.11887e-14 0)
(0.575 -4.58221e-14 0)
(0.575 -1.04813e-13 0)
(0.575 -2.03467e-13 0)
(0.575 -3.69575e-13 0)
(0.575 -6.38684e-13 0)
(0.575 -1.06344e-12 0)
(0.575 -1.6898e-12 0)
(0.575 -1.742e-12 0)
(0.625 7.94191e-13 0)
(0.625 1.04875e-12 0)
(0.625 7.64201e-13 0)
(0.625 5.00422e-13 0)
(0.625 3.02065e-13 0)
(0.625 1.76981e-13 0)
(0.625 1.08267e-13 0)
(0.625 7.24563e-14 0)
(0.625 5.20305e-14 0)
(0.625 3.62106e-14 0)
(0.625 1.8115e-14 0)
(0.625 -7.86289e-15 0)
(0.625 -4.87219e-14 0)
(0.625 -1.1528e-13 0)
(0.625 -2.26886e-13 0)
(0.625 -4.17697e-13 0)
(0.625 -7.33993e-13 0)
(0.625 -1.23768e-12 0)
(0.625 -2.00713e-12 0)
(0.625 -2.06913e-12 0)
(0.675 1.54422e-12 0)
(0.675 1.89092e-12 0)
(0.675 1.38772e-12 0)
(0.675 9.17119e-13 0)
(0.675 5.68157e-13 0)
(0.675 3.38685e-13 0)
(0.675 2.02918e-13 0)
(0.675 1.25886e-13 0)
(0.675 8.09843e-14 0)
(0.675 5.11031e-14 0)
(0.675 2.53163e-14 0)
(0.675 -4.68447e-15 0)
(0.675 -4.75458e-14 0)
(0.675 -1.15568e-13 0)
(0.675 -2.29999e-13 0)
(0.675 -4.28294e-13 0)
(0.675 -7.63937e-13 0)
(0.675 -1.30568e-12 0)
(0.675 -2.1698e-12 0)
(0.675 -2.249e-12 0)
(0.725 2.06788e-12 0)
(0.725 2.45857e-12 0)
(0.725 1.76911e-12 0)
(0.725 1.15158e-12 0)
(0.725 7.09879e-13 0)
(0.725 4.20649e-13 0)
(0.725 2.48499e-13 0)
(0.725 1.49885e-13 0)
(0.725 9.26651e-14 0)
(0.725 5.62464e-14 0)
(0.725 2.7817e-14 0)
(0.725 -2.12768e-15 0)
(0.725 -4.25329e-14 0)
(0.725 -1.05717e-13 0)
(0.725 -2.12441e-13 0)
(0.725 -3.99896e-13 0)
(0.725 -7.24407e-13 0)
(0.725 -1.25804e-12 0)
(0.725 -2.1573e-12 0)
(0.725 -2.26012e-12 0)
(0.775 2.30301e-12 0)
(0.775 2.67396e-12 0)
(0.775 1.85241e-12 0)
(0.775 1.17316e-12 0)
(0.775 7.11698e-13 0)
(0.775 4.15756e-13 0)
(0.775 2.42017e-13 0)
(0.775 1.43403e-13 0)
(0.775 8.67073e-14 0)
(0.775 5.1578e-14 0)
(0.775 2.55004e-14 0)
(0.775 -4.76332e-16 0)
(0.775 -3.44679e-14 0)
(0.775 -8.72e-14 0)
(0.775 -1.76741e-13 0)
(0.775 -3.36331e-13 0)
(0.775 -6.19982e-13 0)
(0.775 -1.09741e-12 0)
(0.775 -1.96275e-12 0)
(0.775 -2.09318e-12 0)
(0.825 2.20241e-12 0)
(0.825 2.48408e-12 0)
(0.825 1.62048e-12 0)
(0.825 9.86601e-13 0)
(0.825 5.85027e-13 0)
(0.825 3.34774e-13 0)
(0.825 1.91678e-13 0)
(0.825 1.12006e-13 0)
(0.825 6.67762e-14 0)
(0.825 3.92678e-14 0)
(0.825 1.9406e-14 0)
(0.825 2.052e-16 0)
(0.825 -2.44424e-14 0)
(0.825 -6.28072e-14 0)
(0.825 -1.28289e-13 0)
(0.825 -2.46936e-13 0)
(0.825 -4.6464e-13 0)
(0.825 -8.40404e-13 0)
(0.825 -1.59409e-12 0)
(0.825 -1.75121e-12 0)
(0.875 1.759e-12 0)
(0.875 1.89752e-12 0)
(0.875 1.12303e-12 0)
(0.875 6.48129e-13 0)
(0.875 3.7387e-13 0)
(0.875 2.08207e-13 0)
(0.875 1.16894e-13 0)
(0.875 6.74912e-14 0)
(0.875 4.00119e-14 0)
(0.875 2.33636e-14 0)
(0.875 1.15342e-14 0)
(0.875 2.88239e-16 0)
(0.875 -1.41729e-14 0)
(0.875 -3.69506e-14 0)
(0.875 -7.58329e-14 0)
(0.875 -1.47345e-13 0)
(0.875 -2.84408e-13 0)
(0.875 -5.25336e-13 0)
(0.875 -1.08863e-12 0)
(0.875 -1.25841e-12 0)
(0.925 1.04466e-12 0)
(0.925 1.05208e-12 0)
(0.925 5.28682e-13 0)
(0.925 2.80759e-13 0)
(0.925 1.56714e-13 0)
(0.925 8.36301e-14 0)
(0.925 4.56532e-14 0)
(0.925 2.60515e-14 0)
(0.925 1.54873e-14 0)
(0.925 9.08416e-15 0)
(0.925 4.59961e-15 0)
(0.925 2.84456e-16 0)
(0.925 -5.51426e-15 0)
(0.925 -1.47763e-14 0)
(0.925 -3.05985e-14 0)
(0.925 -6.03103e-14 0)
(0.925 -1.20689e-13 0)
(0.925 -2.2641e-13 0)
(0.925 -5.44222e-13 0)
(0.925 -6.86387e-13 0)
(0.975 3.22919e-13 0)
(0.975 3.0209e-13 0)
(0.975 1.21013e-13 0)
(0.975 5.63901e-14 0)
(0.975 3.02543e-14 0)
(0.975 1.49977e-14 0)
(0.975 7.84585e-15 0)
(0.975 4.4414e-15 0)
(0.975 2.64918e-15 0)
(0.975 1.5495e-15 0)
(0.975 8.02331e-16 0)
(0.975 2.98496e-17 0)
(0.975 -1.13699e-15 0)
(0.975 -3.0072e-15 0)
(0.975 -6.12357e-15 0)
(0.975 -1.20421e-14 0)
(0.975 -2.53178e-14 0)
(0.975 -4.76e-14 0)
(0.975 -1.4197e-13 0)
(0.975 -1.98164e-13 0)
)
;

boundaryField
{
    top
    {
        type            fixedValue;
        value           uniform (1 0 0);
    }
    bottom
    {
        type            fixedValue;
        value           uniform (0 0 0);
    }
    inlet
    {
        type            zeroGradient;
    }
    outlet
    {
        type            zeroGradient;
    }
    frontAndBack
    {
        type            empty;
    }
}


// ************************************************************************* //
