/*--------------------------------*- C++ -*----------------------------------*\
  =========                 |
  \\      /  F ield         | OpenFOAM: The Open Source CFD Toolbox
   \\    /   O peration     | Website:  https://openfoam.org
    \\  /    A nd           | Version:  9
     \\/     M anipulation  |
\*---------------------------------------------------------------------------*/
FoamFile
{
    format      ascii;
    class       volScalarField;
    location    "2.6";
    object      p;
}
// * * * * * * * * * * * * * * * * * * * * * * * * * * * * * * * * * * * * * //

dimensions      [0 2 -2 0 0 0 0];

internalField   nonuniform List<scalar> 
400
(
5.40643e-09
8.96011e-09
8.66424e-09
8.24129e-09
7.54684e-09
6.72439e-09
5.8676e-09
4.9959e-09
4.12383e-09
3.25871e-09
2.39664e-09
1.53205e-09
6.62968e-10
-2.10222e-10
-1.08662e-09
-1.96791e-09
-2.83143e-09
-3.61503e-09
-4.60453e-09
-2.90899e-09
5.12734e-09
8.53631e-09
8.2141e-09
7.97155e-09
7.3832e-09
6.6257e-09
5.8105e-09
4.96399e-09
4.10671e-09
3.25014e-09
2.39299e-09
1.53157e-09
6.65402e-10
-2.0339e-10
-1.07064e-09
-1.9334e-09
-2.7582e-09
-3.44697e-09
-4.49484e-09
-2.83441e-09
5.18409e-09
8.57366e-09
7.96283e-09
7.79821e-09
7.26671e-09
6.54871e-09
5.76302e-09
4.93585e-09
4.09046e-09
3.24094e-09
2.38808e-09
1.52967e-09
6.66249e-10
-1.9891e-10
-1.05967e-09
-1.91194e-09
-2.72106e-09
-3.36567e-09
-4.63959e-09
-2.93872e-09
5.38314e-09
8.94738e-09
7.90994e-09
7.72504e-09
7.20373e-09
6.49877e-09
5.72859e-09
4.9133e-09
4.07583e-09
3.23137e-09
2.38194e-09
1.52613e-09
6.64964e-10
-1.97888e-10
-1.05577e-09
-1.90654e-09
-2.7213e-09
-3.37159e-09
-4.93233e-09
-3.10011e-09
5.60114e-09
9.4651e-09
7.95967e-09
7.70836e-09
7.17291e-09
6.46568e-09
5.7023e-09
4.89395e-09
4.06179e-09
3.22121e-09
2.37474e-09
1.52124e-09
6.6181e-10
-1.99868e-10
-1.05754e-09
-1.91224e-09
-2.74396e-09
-3.41955e-09
-5.25976e-09
-3.25348e-09
5.80243e-09
1.00245e-08
8.06035e-09
7.72231e-09
7.16133e-09
6.44277e-09
5.68062e-09
4.87618e-09
4.04785e-09
3.2105e-09
2.36671e-09
1.51528e-09
6.57143e-10
-2.04164e-10
-1.06318e-09
-1.92444e-09
-2.77731e-09
-3.48224e-09
-5.56009e-09
-3.37826e-09
5.97999e-09
1.05691e-08
8.1824e-09
7.75107e-09
7.16007e-09
6.42552e-09
5.66126e-09
4.85906e-09
4.03382e-09
3.1994e-09
2.35812e-09
1.50857e-09
6.51412e-10
-2.09961e-10
-1.07096e-09
-1.93911e-09
-2.81287e-09
-3.54309e-09
-5.80185e-09
-3.47086e-09
6.12679e-09
1.10522e-08
8.30191e-09
7.78077e-09
7.16104e-09
6.40981e-09
5.64225e-09
4.84175e-09
4.0195e-09
3.18802e-09
2.34923e-09
1.50147e-09
6.45198e-10
-2.16247e-10
-1.07891e-09
-1.95233e-09
-2.84291e-09
-3.58966e-09
-5.96316e-09
-3.5278e-09
6.23841e-09
1.14379e-08
8.39951e-09
7.80063e-09
7.15788e-09
6.39256e-09
5.62223e-09
4.82378e-09
4.00485e-09
3.17652e-09
2.34032e-09
1.49442e-09
6.39165e-10
-2.21922e-10
-1.0851e-09
-1.96063e-09
-2.86125e-09
-3.61283e-09
-6.03166e-09
-3.54815e-09
6.31152e-09
1.16996e-08
8.4619e-09
7.80379e-09
7.14685e-09
6.37223e-09
5.60084e-09
4.80523e-09
3.99012e-09
3.16521e-09
2.33173e-09
1.48785e-09
6.33946e-10
-2.26002e-10
-1.08794e-09
-1.96148e-09
-2.86358e-09
-3.60734e-09
-6.00272e-09
-3.53215e-09
6.34375e-09
1.18203e-08
8.48168e-09
7.78758e-09
7.12694e-09
6.34903e-09
5.5787e-09
4.78677e-09
3.97584e-09
3.1545e-09
2.32382e-09
1.48214e-09
6.30042e-10
-2.27781e-10
-1.08644e-09
-1.95347e-09
-2.8479e-09
-3.57154e-09
-5.87862e-09
-3.48135e-09
6.33297e-09
1.17914e-08
8.45725e-09
7.75327e-09
7.09971e-09
6.32465e-09
5.55734e-09
4.76955e-09
3.96281e-09
3.14491e-09
2.31694e-09
1.47757e-09
6.27728e-10
-2.26967e-10
-1.08032e-09
-1.9366e-09
-2.8145e-09
-3.50713e-09
-5.66741e-09
-3.39813e-09
6.27723e-09
1.16139e-08
8.39304e-09
7.7059e-09
7.06902e-09
6.30204e-09
5.53893e-09
4.75506e-09
3.95198e-09
3.137e-09
2.31141e-09
1.47428e-09
6.27013e-10
-2.23756e-10
-1.07017e-09
-1.91226e-09
-2.76603e-09
-3.41905e-09
-5.38242e-09
-3.28578e-09
6.17589e-09
1.12994e-08
8.29981e-09
7.65415e-09
7.04058e-09
6.28497e-09
5.52591e-09
4.74487e-09
3.94427e-09
3.13128e-09
2.30743e-09
1.47226e-09
6.27618e-10
-2.18844e-10
-1.05743e-09
-1.88331e-09
-2.70748e-09
-3.3154e-09
-5.04222e-09
-3.1488e-09
6.02925e-09
1.08717e-08
8.19537e-09
7.60964e-09
7.02143e-09
6.27742e-09
5.52063e-09
4.7403e-09
3.94043e-09
3.1281e-09
2.30509e-09
1.47133e-09
6.2901e-10
-2.13362e-10
-1.04428e-09
-1.85382e-09
-2.64596e-09
-3.20732e-09
-4.67049e-09
-2.99308e-09
5.84143e-09
1.03693e-08
8.10299e-09
7.58601e-09
7.01873e-09
6.28299e-09
5.52477e-09
4.74219e-09
3.94081e-09
3.1276e-09
2.30435e-09
1.47119e-09
6.30475e-10
-2.08727e-10
-1.03338e-09
-1.82876e-09
-2.59024e-09
-3.10835e-09
-4.29611e-09
-2.82633e-09
5.61557e-09
9.84506e-09
8.05289e-09
7.59693e-09
7.03909e-09
6.30413e-09
5.53911e-09
4.75062e-09
3.94535e-09
3.12961e-09
2.30496e-09
1.47142e-09
6.31205e-10
-2.06488e-10
-1.02758e-09
-1.81349e-09
-2.55023e-09
-3.03485e-09
-3.953e-09
-2.65686e-09
5.38456e-09
9.4026e-09
8.0959e-09
7.66406e-09
7.09101e-09
6.34402e-09
5.56442e-09
4.76565e-09
3.95388e-09
3.13397e-09
2.30671e-09
1.47157e-09
6.30236e-10
-2.08503e-10
-1.03027e-09
-1.8146e-09
-2.53946e-09
-3.01307e-09
-3.69743e-09
-2.50736e-09
5.25362e-09
9.23573e-09
8.32613e-09
7.82317e-09
7.18948e-09
6.40795e-09
5.60252e-09
4.78781e-09
3.96661e-09
3.14081e-09
2.30961e-09
1.47142e-09
6.26874e-10
-2.16354e-10
-1.04493e-09
-1.83986e-09
-2.57586e-09
-3.08509e-09
-3.62875e-09
-2.44818e-09
5.41633e-09
9.51492e-09
8.74454e-09
8.0686e-09
7.32729e-09
6.4894e-09
5.64891e-09
4.81433e-09
3.98188e-09
3.14921e-09
2.31325e-09
1.47095e-09
6.21623e-10
-2.28819e-10
-1.06947e-09
-1.88594e-09
-2.65752e-09
-3.24939e-09
-3.8077e-09
-2.58453e-09
)
;

boundaryField
{
    top
    {
        type            zeroGradient;
    }
    bottom
    {
        type            zeroGradient;
    }
    inlet
    {
        type            fixedValue;
        value           uniform 0;
    }
    outlet
    {
        type            fixedValue;
        value           uniform 0;
    }
    frontAndBack
    {
        type            empty;
    }
}


// ************************************************************************* //
