/*--------------------------------*- C++ -*----------------------------------*\
  =========                 |
  \\      /  F ield         | OpenFOAM: The Open Source CFD Toolbox
   \\    /   O peration     | Website:  https://openfoam.org
    \\  /    A nd           | Version:  9
     \\/     M anipulation  |
\*---------------------------------------------------------------------------*/
FoamFile
{
    format      ascii;
    class       surfaceScalarField;
    location    "2.6";
    object      phi;
}
// * * * * * * * * * * * * * * * * * * * * * * * * * * * * * * * * * * * * * //

dimensions      [0 3 -1 0 0 0 0];

internalField   nonuniform List<scalar> 
760
(
1.24999e-06
-3.31126e-14
1.24999e-06
-2.7556e-14
1.24999e-06
-1.31265e-14
1.24999e-06
-7.46378e-15
1.24999e-06
-4.2844e-15
1.24999e-06
-2.35465e-15
1.24999e-06
-1.29042e-15
1.24999e-06
-6.75764e-16
1.24999e-06
-3.29922e-16
1.24999e-06
-1.5025e-16
1.24999e-06
-5.64185e-17
1.24999e-06
1.22844e-18
1.24999e-06
5.42968e-17
1.24999e-06
1.40324e-16
1.24999e-06
3.32522e-16
1.24999e-06
8.39703e-16
1.24999e-06
2.00242e-15
1.24999e-06
4.47885e-15
1.24999e-06
1.41041e-14
1.62808e-14
3.74998e-06
-7.97115e-14
3.74998e-06
-7.46965e-14
3.74998e-06
-4.27075e-14
3.74998e-06
-2.54175e-14
3.74998e-06
-1.49996e-14
3.74998e-06
-8.53489e-15
3.74998e-06
-4.76754e-15
3.74998e-06
-2.56699e-15
3.74998e-06
-1.3062e-15
3.74998e-06
-6.09657e-16
3.74998e-06
-2.27359e-16
3.74998e-06
2.74149e-18
3.74998e-06
2.02579e-16
3.74998e-06
5.16188e-16
3.74998e-06
1.20148e-15
3.74998e-06
2.85368e-15
3.74998e-06
6.54049e-15
3.74998e-06
1.40441e-14
3.74998e-06
3.42276e-14
3.61726e-14
6.24997e-06
-1.21238e-13
6.24997e-06
-1.21633e-13
6.24997e-06
-7.73195e-14
6.24997e-06
-4.78801e-14
6.24997e-06
-2.90141e-14
6.24997e-06
-1.69093e-14
6.24997e-06
-9.59659e-15
6.24997e-06
-5.24918e-15
6.24997e-06
-2.72219e-15
6.24997e-06
-1.29535e-15
6.24997e-06
-5.00524e-16
6.24997e-06
-2.77072e-17
6.24997e-06
3.6477e-16
6.24997e-06
9.54859e-16
6.24997e-06
2.21144e-15
6.24997e-06
5.10496e-15
6.24997e-06
1.13352e-14
6.24997e-06
2.34467e-14
6.24997e-06
4.96645e-14
4.97015e-14
8.74996e-06
-1.52332e-13
8.74996e-06
-1.58659e-13
8.74996e-06
-1.07994e-13
8.74996e-06
-6.92955e-14
8.74996e-06
-4.30055e-14
8.74996e-06
-2.55616e-14
8.74996e-06
-1.47065e-14
8.74996e-06
-8.14014e-15
8.74996e-06
-4.27265e-15
8.74996e-06
-2.06236e-15
8.74996e-06
-8.26225e-16
8.74996e-06
-1.05612e-16
8.74996e-06
4.57408e-16
8.74996e-06
1.25743e-15
8.74996e-06
2.92499e-15
8.74996e-06
6.66163e-15
8.74996e-06
1.4505e-14
8.74996e-06
2.90047e-14
8.74996e-06
5.67233e-14
5.50129e-14
1.125e-05
-1.69818e-13
1.125e-05
-1.80822e-13
1.125e-05
-1.29198e-13
1.125e-05
-8.53784e-14
1.125e-05
-5.4112e-14
1.125e-05
-3.27026e-14
1.125e-05
-1.9036e-14
1.125e-05
-1.063e-14
1.125e-05
-5.62233e-15
1.125e-05
-2.7398e-15
1.125e-05
-1.13325e-15
1.125e-05
-2.27814e-16
1.125e-05
4.17918e-16
1.125e-05
1.26508e-15
1.125e-05
3.00826e-15
1.125e-05
6.88708e-15
1.125e-05
1.49282e-14
1.125e-05
2.92014e-14
1.125e-05
5.44534e-14
5.16144e-14
1.37499e-05
-1.72853e-13
1.37499e-05
-1.86436e-13
1.37499e-05
-1.38023e-13
1.37499e-05
-9.34201e-14
1.37499e-05
-6.02791e-14
1.37499e-05
-3.69453e-14
1.37499e-05
-2.17106e-14
1.37499e-05
-1.21963e-14
1.37499e-05
-6.47306e-15
1.37499e-05
-3.16769e-15
1.37499e-05
-1.34606e-15
1.37499e-05
-3.7443e-16
1.37499e-05
2.19838e-16
1.37499e-05
8.96305e-16
1.37499e-05
2.30204e-15
1.37499e-05
5.51941e-15
1.37499e-05
1.22872e-14
1.37499e-05
2.39317e-14
1.37499e-05
4.37249e-14
4.04267e-14
1.62499e-05
-1.62009e-13
1.62499e-05
-1.75838e-13
1.62499e-05
-1.33689e-13
1.62499e-05
-9.22261e-14
1.62499e-05
-6.0418e-14
1.62499e-05
-3.74645e-14
1.62499e-05
-2.21738e-14
1.62499e-05
-1.24894e-14
1.62499e-05
-6.61765e-15
1.62499e-05
-3.22905e-15
1.62499e-05
-1.40241e-15
1.62499e-05
-5.15363e-16
1.62499e-05
-1.24729e-16
1.62499e-05
1.57394e-16
1.62499e-05
8.26791e-16
1.62499e-05
2.65177e-15
1.62499e-05
6.88277e-15
1.62499e-05
1.40429e-14
1.62499e-05
2.62701e-14
2.30155e-14
1.87499e-05
-1.3904e-13
1.87499e-05
-1.50897e-13
1.87499e-05
-1.17073e-13
1.87499e-05
-8.19894e-14
1.87499e-05
-5.44153e-14
1.87499e-05
-3.40705e-14
1.87499e-05
-2.02562e-14
1.87499e-05
-1.13881e-14
1.87499e-05
-5.97718e-15
1.87499e-05
-2.87418e-15
1.87499e-05
-1.26827e-15
1.87499e-05
-6.19333e-16
1.87499e-05
-5.71324e-16
1.87499e-05
-8.6801e-16
1.87499e-05
-1.24345e-15
1.87499e-05
-1.351e-15
1.87499e-05
-5.44167e-16
1.87499e-05
9.30666e-16
1.87499e-05
4.33074e-15
1.40646e-15
2.12499e-05
-1.06497e-13
2.12499e-05
-1.14537e-13
2.12499e-05
-9.03416e-14
2.12499e-05
-6.40699e-14
2.12499e-05
-4.30577e-14
2.12499e-05
-2.71938e-14
2.12499e-05
-1.6189e-14
2.12499e-05
-9.01541e-15
2.12499e-05
-4.61599e-15
2.12499e-05
-2.13237e-15
2.12499e-05
-9.47313e-16
2.12499e-05
-6.62803e-16
2.12499e-05
-1.05537e-15
2.12499e-05
-2.04105e-15
2.12499e-05
-3.6296e-15
2.12499e-05
-5.94768e-15
2.12499e-05
-9.00501e-15
2.12499e-05
-1.3736e-14
2.12499e-05
-1.96842e-14
-2.22112e-14
2.37499e-05
-6.75496e-14
2.37499e-05
-7.04616e-14
2.37499e-05
-5.66177e-14
2.37499e-05
-4.07494e-14
2.37499e-05
-2.78734e-14
2.37499e-05
-1.77986e-14
2.37499e-05
-1.05573e-14
2.37499e-05
-5.71692e-15
2.37499e-05
-2.73163e-15
2.37499e-05
-1.10884e-15
2.37499e-05
-4.82455e-16
2.37499e-05
-6.36479e-16
2.37499e-05
-1.50614e-15
2.37499e-05
-3.19607e-15
2.37499e-05
-6.00126e-15
2.37499e-05
-1.05214e-14
2.37499e-05
-1.74207e-14
2.37499e-05
-2.82364e-14
2.37499e-05
-4.33801e-14
-4.56181e-14
2.62499e-05
-2.57616e-14
2.62499e-05
-2.28968e-14
2.62499e-05
-1.96808e-14
2.62499e-05
-1.49481e-14
2.62499e-05
-1.09159e-14
2.62499e-05
-7.23258e-15
2.62499e-05
-4.2041e-15
2.62499e-05
-2.00145e-15
2.62499e-05
-6.20602e-16
2.62499e-05
3.33222e-17
2.62499e-05
5.10603e-17
2.62499e-05
-5.4757e-16
2.62499e-05
-1.85968e-15
2.62499e-05
-4.16886e-15
2.62499e-05
-8.03015e-15
2.62499e-05
-1.44684e-14
2.62499e-05
-2.47567e-14
2.62499e-05
-4.09555e-14
2.62499e-05
-6.45286e-14
-6.67109e-14
2.87499e-05
1.51036e-14
2.87499e-05
2.36416e-14
2.87499e-05
1.63367e-14
2.87499e-05
1.00894e-14
2.87499e-05
5.50226e-15
2.87499e-05
2.97256e-15
2.87499e-05
1.90634e-15
2.87499e-05
1.54702e-15
2.87499e-05
1.37526e-15
2.87499e-05
1.10381e-15
2.87499e-05
5.60455e-16
2.87499e-05
-4.17289e-16
2.87499e-05
-2.0684e-15
2.87499e-05
-4.82161e-15
2.87499e-05
-9.43622e-15
2.87499e-05
-1.72734e-14
2.87499e-05
-3.01286e-14
2.87499e-05
-5.05084e-14
2.87499e-05
-8.11748e-14
-8.36065e-14
3.12499e-05
5.12763e-14
3.12499e-05
6.45803e-14
3.12499e-05
4.72799e-14
3.12499e-05
3.11449e-14
3.12499e-05
1.91205e-14
3.12499e-05
1.13357e-14
3.12499e-05
6.85232e-15
3.12499e-05
4.37519e-15
3.12499e-05
2.93444e-15
3.12499e-05
1.92328e-15
3.12499e-05
9.55294e-16
3.12499e-05
-2.74488e-16
3.12499e-05
-2.10665e-15
3.12499e-05
-5.06214e-15
3.12499e-05
-1.00247e-14
3.12499e-05
-1.85697e-14
3.12499e-05
-3.28866e-14
3.12499e-05
-5.58374e-14
3.12499e-05
-9.17272e-14
-9.47362e-14
3.37499e-05
7.92336e-14
3.37499e-05
9.55747e-14
3.37499e-05
6.93446e-14
3.37499e-05
4.54337e-14
3.37499e-05
2.80659e-14
3.37499e-05
1.66793e-14
3.37499e-05
9.9238e-15
3.37499e-05
6.06936e-15
3.37499e-05
3.82175e-15
3.37499e-05
2.36211e-15
3.37499e-05
1.16832e-15
3.37499e-05
-1.47128e-16
3.37499e-05
-1.97265e-15
3.37499e-05
-4.85665e-15
3.37499e-05
-9.71301e-15
3.37499e-05
-1.81842e-14
3.37499e-05
-3.26845e-14
3.37499e-05
-5.62974e-14
3.37499e-05
-9.50458e-14
-9.89359e-14
3.62499e-05
9.58724e-14
3.62499e-05
1.12821e-13
3.62499e-05
7.95689e-14
3.62499e-05
5.10465e-14
3.62499e-05
3.12106e-14
3.62499e-05
1.83653e-14
3.62499e-05
1.07758e-14
3.62499e-05
6.44652e-15
3.62499e-05
3.94263e-15
3.62499e-05
2.37131e-15
3.62499e-05
1.17252e-15
3.62499e-05
-5.44105e-17
3.62499e-05
-1.6875e-15
3.62499e-05
-4.23617e-15
3.62499e-05
-8.54647e-15
3.62499e-05
-1.61698e-14
3.62499e-05
-2.95345e-14
3.62499e-05
-5.17449e-14
3.62499e-05
-9.05307e-14
-9.55215e-14
3.875e-05
9.89986e-14
3.875e-05
1.13638e-13
3.875e-05
7.64143e-14
3.875e-05
4.74666e-14
3.875e-05
2.84812e-14
3.875e-05
1.64877e-14
3.875e-05
9.52786e-15
3.875e-05
5.60962e-15
3.875e-05
3.37111e-15
3.875e-05
1.99791e-15
3.875e-05
9.89422e-16
3.875e-05
-2.0798e-18
3.875e-05
-1.29293e-15
3.875e-05
-3.29644e-15
3.875e-05
-6.7039e-15
3.875e-05
-1.28224e-14
3.875e-05
-2.38578e-14
3.875e-05
-4.26362e-14
3.875e-05
-7.82917e-14
-8.44369e-14
4.125e-05
8.74909e-14
4.125e-05
9.70618e-14
4.125e-05
6.06361e-14
4.125e-05
3.60219e-14
4.125e-05
2.11031e-14
4.125e-05
1.19461e-14
4.125e-05
6.78712e-15
4.125e-05
3.94249e-15
4.125e-05
2.34248e-15
4.125e-05
1.37819e-15
4.125e-05
6.85809e-16
4.125e-05
1.72707e-17
4.125e-05
-8.48311e-16
4.125e-05
-2.19228e-15
4.125e-05
-4.49074e-15
4.125e-05
-8.68575e-15
4.125e-05
-1.65206e-14
4.125e-05
-3.01682e-14
4.125e-05
-5.93362e-14
-6.63809e-14
4.375e-05
6.26095e-14
4.375e-05
6.55239e-14
4.375e-05
3.62062e-14
4.375e-05
2.0323e-14
4.375e-05
1.15908e-14
4.375e-05
6.37231e-15
4.375e-05
3.54825e-15
4.375e-05
2.03855e-15
4.375e-05
1.20357e-15
4.375e-05
7.08595e-16
4.375e-05
3.5759e-16
4.375e-05
1.80611e-17
4.375e-05
-4.28023e-16
4.375e-05
-1.12449e-15
4.375e-05
-2.31941e-15
4.375e-05
-4.53547e-15
4.375e-05
-8.87216e-15
4.375e-05
-1.64728e-14
4.375e-05
-3.61053e-14
-4.32027e-14
4.625e-05
2.76687e-14
4.625e-05
2.65286e-14
4.625e-05
1.18362e-14
4.625e-05
6.08793e-15
4.625e-05
3.40955e-15
4.625e-05
1.78803e-15
4.625e-05
9.68614e-16
4.625e-05
5.51923e-16
4.625e-05
3.26632e-16
4.625e-05
1.95855e-16
4.625e-05
1.04221e-16
4.625e-05
1.23935e-17
4.625e-05
-1.16688e-16
4.625e-05
-3.21045e-16
4.625e-05
-6.67077e-16
4.625e-05
-1.31881e-15
4.625e-05
-2.68892e-15
4.625e-05
-4.97399e-15
4.625e-05
-1.32045e-14
-1.78828e-14
4.875e-05
4.875e-05
4.875e-05
4.875e-05
4.875e-05
4.875e-05
4.875e-05
4.875e-05
4.875e-05
4.875e-05
4.875e-05
4.875e-05
4.875e-05
4.875e-05
4.875e-05
4.875e-05
4.875e-05
4.875e-05
4.875e-05
)
;

boundaryField
{
    top
    {
        type            calculated;
        value           uniform 0;
    }
    bottom
    {
        type            calculated;
        value           uniform 0;
    }
    inlet
    {
        type            calculated;
        value           nonuniform List<scalar> 
20
(
-1.24999e-06
-3.74998e-06
-6.24997e-06
-8.74996e-06
-1.125e-05
-1.37499e-05
-1.62499e-05
-1.87499e-05
-2.12499e-05
-2.37499e-05
-2.62499e-05
-2.87499e-05
-3.12499e-05
-3.37499e-05
-3.62499e-05
-3.875e-05
-4.125e-05
-4.375e-05
-4.625e-05
-4.875e-05
)
;
    }
    outlet
    {
        type            calculated;
        value           nonuniform List<scalar> 
20
(
1.24999e-06
3.74998e-06
6.24997e-06
8.74996e-06
1.125e-05
1.37499e-05
1.62499e-05
1.87499e-05
2.12499e-05
2.37499e-05
2.62499e-05
2.87499e-05
3.12499e-05
3.37499e-05
3.62499e-05
3.875e-05
4.125e-05
4.375e-05
4.625e-05
4.875e-05
)
;
    }
    frontAndBack
    {
        type            empty;
        value           nonuniform List<scalar> 0();
    }
}


// ************************************************************************* //
