/*--------------------------------*- C++ -*----------------------------------*\
  =========                 |
  \\      /  F ield         | OpenFOAM: The Open Source CFD Toolbox
   \\    /   O peration     | Website:  https://openfoam.org
    \\  /    A nd           | Version:  9
     \\/     M anipulation  |
\*---------------------------------------------------------------------------*/
FoamFile
{
    format      ascii;
    class       volVectorField;
    location    "2.6";
    object      U;
}
// * * * * * * * * * * * * * * * * * * * * * * * * * * * * * * * * * * * * * //

dimensions      [0 1 -1 0 0 0 0];

internalField   nonuniform List<vector> 
400
(
(0.0249999 -1.62029e-10 0)
(0.0249999 -1.29585e-10 0)
(0.0249999 -5.44259e-11 0)
(0.0249999 -2.89901e-11 0)
(0.0249999 -1.5987e-11 0)
(0.0249999 -8.4684e-12 0)
(0.0249999 -4.56436e-12 0)
(0.0249999 -2.28413e-12 0)
(0.0249999 -1.03019e-12 0)
(0.0249999 -4.40093e-13 0)
(0.0249999 -1.59073e-13 0)
(0.0249999 2.34381e-14 0)
(0.0249999 2.13084e-13 0)
(0.0249999 5.3474e-13 0)
(0.0249999 1.27284e-12 0)
(0.0249999 3.37931e-12 0)
(0.0249999 8.43402e-12 0)
(0.0249999 2.01221e-11 0)
(0.0249999 7.10868e-11 0)
(0.0249999 8.33624e-11 0)
(0.0749997 -5.57935e-10 0)
(0.0749997 -4.95999e-10 0)
(0.0749997 -2.58901e-10 0)
(0.0749997 -1.48599e-10 0)
(0.0749997 -8.58169e-11 0)
(0.0749997 -4.77085e-11 0)
(0.0749997 -2.62301e-11 0)
(0.0749997 -1.38746e-11 0)
(0.0749997 -6.88211e-12 0)
(0.0749997 -3.12445e-12 0)
(0.0749997 -1.1121e-12 0)
(0.0749997 1.05325e-13 0)
(0.0749997 1.20324e-12 0)
(0.0749997 2.99065e-12 0)
(0.0749997 6.9977e-12 0)
(0.0749997 1.71106e-11 0)
(0.0749997 4.02272e-11 0)
(0.0749997 8.95263e-11 0)
(0.0749997 2.43297e-10 0)
(0.0749997 2.67095e-10 0)
(0.124999 -1.01472e-09 0)
(0.124999 -9.85436e-10 0)
(0.124999 -5.95199e-10 0)
(0.124999 -3.60127e-10 0)
(0.124999 -2.14813e-10 0)
(0.124999 -1.23525e-10 0)
(0.124999 -6.94663e-11 0)
(0.124999 -3.76461e-11 0)
(0.124999 -1.93176e-11 0)
(0.124999 -9.095e-12 0)
(0.124999 -3.43774e-12 0)
(0.124999 -3.00709e-14 0)
(0.124999 2.90291e-12 0)
(0.124999 7.44377e-12 0)
(0.124999 1.72407e-11 0)
(0.124999 4.02659e-11 0)
(0.124999 9.0711e-11 0)
(0.124999 1.91401e-10 0)
(0.124999 4.30613e-10 0)
(0.124999 4.42879e-10 0)
(0.174999 -1.39621e-09 0)
(0.174999 -1.42796e-09 0)
(0.174999 -9.41597e-10 0)
(0.174999 -5.931e-10 0)
(0.174999 -3.63329e-10 0)
(0.174999 -2.13641e-10 0)
(0.174999 -1.21972e-10 0)
(0.174999 -6.70976e-11 0)
(0.174999 -3.50211e-11 0)
(0.174999 -1.67898e-11 0)
(0.174999 -6.59158e-12 0)
(0.174999 -5.52411e-13 0)
(0.174999 4.36616e-12 0)
(0.174999 1.16076e-11 0)
(0.174999 2.68449e-11 0)
(0.174999 6.13344e-11 0)
(0.174999 1.34496e-10 0)
(0.174999 2.7301e-10 0)
(0.174999 5.51337e-10 0)
(0.174999 5.43958e-10 0)
(0.224999 -1.6464e-09 0)
(0.224999 -1.73497e-09 0)
(0.224999 -1.21311e-09 0)
(0.224999 -7.90216e-10 0)
(0.224999 -4.95489e-10 0)
(0.224999 -2.96919e-10 0)
(0.224999 -1.71805e-10 0)
(0.224999 -9.5544e-11 0)
(0.224999 -5.03843e-11 0)
(0.224999 -2.44625e-11 0)
(0.224999 -9.95568e-12 0)
(0.224999 -1.58724e-12 0)
(0.224999 4.74609e-12 0)
(0.224999 1.34723e-11 0)
(0.224999 3.1477e-11 0)
(0.224999 7.14387e-11 0)
(0.224999 1.54429e-10 0)
(0.224999 3.04348e-10 0)
(0.224999 5.76937e-10 0)
(0.224999 5.54039e-10 0)
(0.274999 -1.74917e-09 0)
(0.274999 -1.87579e-09 0)
(0.274999 -1.36789e-09 0)
(0.274999 -9.15765e-10 0)
(0.274999 -5.85853e-10 0)
(0.274999 -3.56683e-10 0)
(0.274999 -2.08686e-10 0)
(0.274999 -1.16961e-10 0)
(0.274999 -6.20431e-11 0)
(0.274999 -3.03486e-11 0)
(0.274999 -1.27355e-11 0)
(0.274999 -3.00101e-12 0)
(0.274999 3.56757e-12 0)
(0.274999 1.17476e-11 0)
(0.274999 2.85127e-11 0)
(0.274999 6.58971e-11 0)
(0.274999 1.43285e-10 0)
(0.274999 2.78018e-10 0)
(0.274999 5.08976e-10 0)
(0.274999 4.77861e-10 0)
(0.324999 -1.70708e-09 0)
(0.324999 -1.84826e-09 0)
(0.324999 -1.39016e-09 0)
(0.324999 -9.51246e-10 0)
(0.324999 -6.18919e-10 0)
(0.324999 -3.81808e-10 0)
(0.324999 -2.25329e-10 0)
(0.324999 -1.26881e-10 0)
(0.324999 -6.73979e-11 0)
(0.324999 -3.30159e-11 0)
(0.324999 -1.42112e-11 0)
(0.324999 -4.52516e-12 0)
(0.324999 7.70746e-13 0)
(0.324999 6.07697e-12 0)
(0.324999 1.73308e-11 0)
(0.324999 4.41e-11 0)
(0.324999 1.01686e-10 0)
(0.324999 1.9937e-10 0)
(0.324999 3.63329e-10 0)
(0.324999 3.30302e-10 0)
(0.374999 -1.53259e-09 0)
(0.374999 -1.66488e-09 0)
(0.374999 -1.28169e-09 0)
(0.374999 -8.92195e-10 0)
(0.374999 -5.88802e-10 0)
(0.374999 -3.67172e-10 0)
(0.374999 -2.18012e-10 0)
(0.374999 -1.2286e-10 0)
(0.374999 -6.49509e-11 0)
(0.374999 -3.15824e-11 0)
(0.374999 -1.38664e-11 0)
(0.374999 -5.82507e-12 0)
(0.374999 -3.33164e-12 0)
(0.374999 -3.03889e-12 0)
(0.374999 -9.86792e-13 0)
(0.374999 8.58789e-12 0)
(0.374999 3.53481e-11 0)
(0.374999 8.05731e-11 0)
(0.374999 1.6083e-10 0)
(0.374999 1.29913e-10 0)
(0.424999 -1.24782e-09 0)
(0.424999 -1.35041e-09 0)
(0.424999 -1.05844e-09 0)
(0.424999 -7.46906e-10 0)
(0.424999 -4.99128e-10 0)
(0.424999 -3.14086e-10 0)
(0.424999 -1.87074e-10 0)
(0.424999 -1.04909e-10 0)
(0.424999 -5.46169e-11 0)
(0.424999 -2.59309e-11 0)
(0.424999 -1.15328e-11 0)
(0.424999 -6.60498e-12 0)
(0.424999 -8.15847e-12 0)
(0.424999 -1.44201e-11 0)
(0.424999 -2.40416e-11 0)
(0.424999 -3.58635e-11 0)
(0.424999 -4.66589e-11 0)
(0.424999 -6.2485e-11 0)
(0.424999 -7.46775e-11 0)
(0.424999 -1.01748e-10 0)
(0.474999 -8.81844e-10 0)
(0.474999 -9.38608e-10 0)
(0.474999 -7.47645e-10 0)
(0.474999 -5.34222e-10 0)
(0.474999 -3.61925e-10 0)
(0.474999 -2.29808e-10 0)
(0.474999 -1.3677e-10 0)
(0.474999 -7.5466e-11 0)
(0.474999 -3.77578e-11 0)
(0.474999 -1.67589e-11 0)
(0.474999 -7.44939e-12 0)
(0.474999 -6.68921e-12 0)
(0.474999 -1.29988e-11 0)
(0.474999 -2.64717e-11 0)
(0.474999 -4.86515e-11 0)
(0.474999 -8.32287e-11 0)
(0.474999 -1.33644e-10 0)
(0.474999 -2.12402e-10 0)
(0.474999 -3.18779e-10 0)
(0.474999 -3.423e-10 0)
(0.524999 -4.68893e-10 0)
(0.524999 -4.69781e-10 0)
(0.524999 -3.84549e-10 0)
(0.524999 -2.80895e-10 0)
(0.524999 -1.957e-10 0)
(0.524999 -1.26335e-10 0)
(0.524999 -7.45292e-11 0)
(0.524999 -3.8989e-11 0)
(0.524999 -1.69546e-11 0)
(0.524999 -5.46988e-12 0)
(0.524999 -2.23486e-12 0)
(0.524999 -6.06835e-12 0)
(0.524999 -1.71518e-11 0)
(0.524999 -3.74789e-11 0)
(0.524999 -7.13999e-11 0)
(0.524999 -1.27202e-10 0)
(0.524999 -2.14742e-10 0)
(0.524999 -3.52153e-10 0)
(0.524999 -5.48017e-10 0)
(0.524999 -5.69797e-10 0)
(0.574999 -4.61035e-11 0)
(0.574999 1.17635e-11 0)
(0.574999 -9.51064e-12 0)
(0.574999 -1.85716e-11 0)
(0.574999 -2.3006e-11 0)
(0.574999 -1.86103e-11 0)
(0.574999 -9.77036e-12 0)
(0.574999 -1.18848e-12 0)
(0.574999 4.44824e-12 0)
(0.574999 6.08076e-12 0)
(0.574999 3.22543e-12 0)
(0.574999 -4.89724e-12 0)
(0.574999 -2.00425e-11 0)
(0.574999 -4.58786e-11 0)
(0.574999 -8.91444e-11 0)
(0.574999 -1.62024e-10 0)
(0.574999 -2.80127e-10 0)
(0.574999 -4.66463e-10 0)
(0.574999 -7.41218e-10 0)
(0.574999 -7.64058e-10 0)
(0.624999 3.48262e-10 0)
(0.624999 4.599e-10 0)
(0.624999 3.35165e-10 0)
(0.624999 2.1949e-10 0)
(0.624999 1.3248e-10 0)
(0.624999 7.76837e-11 0)
(0.624999 4.76516e-11 0)
(0.624999 3.19723e-11 0)
(0.624999 2.29638e-11 0)
(0.624999 1.59445e-11 0)
(0.624999 7.96174e-12 0)
(0.624999 -3.44712e-12 0)
(0.624999 -2.12976e-11 0)
(0.624999 -5.04839e-11 0)
(0.624999 -9.94356e-11 0)
(0.624999 -1.83159e-10 0)
(0.624999 -3.21944e-10 0)
(0.624999 -5.42893e-10 0)
(0.624999 -8.80416e-10 0)
(0.624999 -9.0758e-10 0)
(0.674999 6.77243e-10 0)
(0.674999 8.29321e-10 0)
(0.674999 6.08647e-10 0)
(0.674999 4.02243e-10 0)
(0.674999 2.49221e-10 0)
(0.674999 1.4863e-10 0)
(0.674999 8.91602e-11 0)
(0.674999 5.53975e-11 0)
(0.674999 3.56504e-11 0)
(0.674999 2.24847e-11 0)
(0.674999 1.11348e-11 0)
(0.674999 -2.02533e-12 0)
(0.674999 -2.07821e-11 0)
(0.674999 -5.06455e-11 0)
(0.674999 -1.0084e-10 0)
(0.674999 -1.87823e-10 0)
(0.674999 -3.35075e-10 0)
(0.674999 -5.72736e-10 0)
(0.674999 -9.51752e-10 0)
(0.674999 -9.86504e-10 0)
(0.724999 9.06964e-10 0)
(0.724999 1.07831e-09 0)
(0.724999 7.75911e-10 0)
(0.724999 5.05064e-10 0)
(0.724999 3.11381e-10 0)
(0.724999 1.84596e-10 0)
(0.724999 1.09147e-10 0)
(0.724999 6.59071e-11 0)
(0.724999 4.0748e-11 0)
(0.724999 2.47452e-11 0)
(0.724999 1.22383e-11 0)
(0.724999 -8.86077e-13 0)
(0.724999 -1.85992e-11 0)
(0.724999 -4.63454e-11 0)
(0.724999 -9.3153e-11 0)
(0.724999 -1.75366e-10 0)
(0.724999 -3.17738e-10 0)
(0.724999 -5.51854e-10 0)
(0.724999 -9.46271e-10 0)
(0.724999 -9.91384e-10 0)
(0.774999 1.01013e-09 0)
(0.774999 1.17281e-09 0)
(0.774999 8.12439e-10 0)
(0.774999 5.14497e-10 0)
(0.774999 3.12168e-10 0)
(0.774999 1.82466e-10 0)
(0.774999 1.0629e-10 0)
(0.774999 6.30135e-11 0)
(0.774999 3.81132e-11 0)
(0.774999 2.26965e-11 0)
(0.774999 1.12337e-11 0)
(0.774999 -1.61897e-13 0)
(0.774999 -1.50699e-11 0)
(0.774999 -3.82227e-11 0)
(0.774999 -7.74914e-11 0)
(0.774999 -1.47491e-10 0)
(0.774999 -2.71957e-10 0)
(0.774999 -4.81403e-10 0)
(0.774999 -8.60939e-10 0)
(0.774999 -9.18156e-10 0)
(0.824999 9.66012e-10 0)
(0.824999 1.08957e-09 0)
(0.824999 7.1075e-10 0)
(0.824999 4.32661e-10 0)
(0.824999 2.56602e-10 0)
(0.824999 1.46967e-10 0)
(0.824999 8.41895e-11 0)
(0.824999 4.91733e-11 0)
(0.824999 2.93242e-11 0)
(0.824999 1.72795e-11 0)
(0.824999 8.57927e-12 0)
(0.824999 1.66842e-13 0)
(0.824999 -1.06919e-11 0)
(0.824999 -2.75197e-11 0)
(0.824999 -5.62464e-11 0)
(0.824999 -1.08297e-10 0)
(0.824999 -2.03842e-10 0)
(0.824999 -3.68689e-10 0)
(0.824999 -6.99255e-10 0)
(0.824999 -7.68162e-10 0)
(0.874999 7.71499e-10 0)
(0.874999 8.32261e-10 0)
(0.874999 4.92547e-10 0)
(0.874999 2.84195e-10 0)
(0.874999 1.6396e-10 0)
(0.874999 9.14247e-11 0)
(0.874999 5.13706e-11 0)
(0.874999 2.96244e-11 0)
(0.874999 1.75042e-11 0)
(0.874999 1.02706e-11 0)
(0.874999 5.13322e-12 0)
(0.874999 2.01232e-13 0)
(0.874999 -6.20473e-12 0)
(0.874999 -1.61676e-11 0)
(0.874999 -3.32201e-11 0)
(0.874999 -6.46375e-11 0)
(0.874999 -1.24774e-10 0)
(0.874999 -2.30462e-10 0)
(0.874999 -4.77521e-10 0)
(0.874999 -5.5199e-10 0)
(0.925 4.58011e-10 0)
(0.925 4.61164e-10 0)
(0.925 2.31482e-10 0)
(0.925 1.22832e-10 0)
(0.925 6.85791e-11 0)
(0.925 3.66751e-11 0)
(0.925 2.0044e-11 0)
(0.925 1.14224e-11 0)
(0.925 6.73414e-12 0)
(0.925 3.99266e-12 0)
(0.925 2.06006e-12 0)
(0.925 1.59813e-13 0)
(0.925 -2.40643e-12 0)
(0.925 -6.44435e-12 0)
(0.925 -1.33765e-11 0)
(0.925 -2.64057e-11 0)
(0.925 -5.28615e-11 0)
(0.925 -9.9146e-11 0)
(0.925 -2.38503e-10 0)
(0.925 -3.00958e-10 0)
(0.975 1.41477e-10 0)
(0.975 1.32238e-10 0)
(0.975 5.27196e-11 0)
(0.975 2.44774e-11 0)
(0.975 1.3132e-11 0)
(0.975 6.53442e-12 0)
(0.975 3.42154e-12 0)
(0.975 1.92896e-12 0)
(0.975 1.13833e-12 0)
(0.975 6.81975e-13 0)
(0.975 3.61773e-13 0)
(0.975 2.39575e-14 0)
(0.975 -4.89001e-13 0)
(0.975 -1.31368e-12 0)
(0.975 -2.66076e-12 0)
(0.975 -5.23189e-12 0)
(0.975 -1.10287e-11 0)
(0.975 -2.07201e-11 0)
(0.975 -6.20751e-11 0)
(0.975 -8.6816e-11 0)
)
;

boundaryField
{
    top
    {
        type            fixedValue;
        value           uniform (1 0 0);
    }
    bottom
    {
        type            fixedValue;
        value           uniform (0 0 0);
    }
    inlet
    {
        type            zeroGradient;
    }
    outlet
    {
        type            zeroGradient;
    }
    frontAndBack
    {
        type            empty;
    }
}


// ************************************************************************* //
