/*--------------------------------*- C++ -*----------------------------------*\
  =========                 |
  \\      /  F ield         | OpenFOAM: The Open Source CFD Toolbox
   \\    /   O peration     | Website:  https://openfoam.org
    \\  /    A nd           | Version:  9
     \\/     M anipulation  |
\*---------------------------------------------------------------------------*/
FoamFile
{
    format      ascii;
    class       volScalarField;
    location    "0.9";
    object      p;
}
// * * * * * * * * * * * * * * * * * * * * * * * * * * * * * * * * * * * * * //

dimensions      [0 2 -2 0 0 0 0];

internalField   nonuniform List<scalar> 
400
(
8.76409e-07
1.47954e-06
1.41378e-06
1.32921e-06
1.20429e-06
1.06196e-06
9.17113e-07
7.71828e-07
6.27973e-07
4.86495e-07
3.46102e-07
2.05002e-07
6.22398e-08
-8.23034e-08
-2.28402e-07
-3.76239e-07
-5.21698e-07
-6.54483e-07
-8.24241e-07
-5.22253e-07
8.37609e-07
1.42159e-06
1.35017e-06
1.29563e-06
1.18751e-06
1.05448e-06
9.14897e-07
7.72294e-07
6.29626e-07
4.88559e-07
3.48195e-07
2.06987e-07
6.41859e-08
-8.00501e-08
-2.24927e-07
-3.69807e-07
-5.08588e-07
-6.24583e-07
-8.04055e-07
-5.08377e-07
8.53621e-07
1.44139e-06
1.31924e-06
1.27729e-06
1.17774e-06
1.04988e-06
9.13767e-07
7.73101e-07
6.31335e-07
4.90557e-07
3.50188e-07
2.08889e-07
6.60532e-08
-7.79794e-08
-2.22067e-07
-3.65386e-07
-5.01544e-07
-6.09817e-07
-8.28882e-07
-5.26878e-07
8.93856e-07
1.51679e-06
1.32011e-06
1.27417e-06
1.17547e-06
1.04868e-06
9.14069e-07
7.74413e-07
6.33119e-07
4.92448e-07
3.52025e-07
2.10632e-07
6.77251e-08
-7.62837e-08
-2.2017e-07
-3.63477e-07
-5.00775e-07
-6.10211e-07
-8.79957e-07
-5.5593e-07
9.38948e-07
1.61616e-06
1.33743e-06
1.27967e-06
1.17784e-06
1.0498e-06
9.15477e-07
7.76178e-07
6.35027e-07
4.94331e-07
3.53814e-07
2.12301e-07
6.92616e-08
-7.48809e-08
-2.18987e-07
-3.63215e-07
-5.03661e-07
-6.17766e-07
-9.37086e-07
-5.83649e-07
9.829e-07
1.72229e-06
1.36269e-06
1.28976e-06
1.18302e-06
1.0524e-06
9.17612e-07
7.7828e-07
6.3709e-07
4.96293e-07
3.55641e-07
2.13971e-07
7.07354e-08
-7.36614e-08
-2.18238e-07
-3.63833e-07
-5.08178e-07
-6.27691e-07
-9.89277e-07
-6.06135e-07
1.02385e-06
1.82523e-06
1.39089e-06
1.30183e-06
1.18963e-06
1.0558e-06
9.20117e-07
7.80564e-07
6.39266e-07
4.98339e-07
3.57532e-07
2.15672e-07
7.21934e-08
-7.25192e-08
-2.17656e-07
-3.64658e-07
-5.12855e-07
-6.3708e-07
-1.03091e-06
-6.22479e-07
1.05993e-06
1.91683e-06
1.41802e-06
1.31365e-06
1.19638e-06
1.05939e-06
9.22705e-07
7.82905e-07
6.41519e-07
5.00477e-07
3.5951e-07
2.17447e-07
7.37094e-08
-7.13117e-08
-2.16937e-07
-3.65046e-07
-5.16374e-07
-6.43761e-07
-1.05812e-06
-6.31872e-07
1.08963e-06
1.99072e-06
1.44086e-06
1.32347e-06
1.20229e-06
1.0627e-06
9.25179e-07
7.85231e-07
6.43835e-07
5.02721e-07
3.61609e-07
2.19347e-07
7.53715e-08
-6.98825e-08
-2.1579e-07
-3.64436e-07
-5.17685e-07
-6.46158e-07
-1.06873e-06
-6.3402e-07
1.11177e-06
2.04223e-06
1.45718e-06
1.33018e-06
1.20675e-06
1.06549e-06
9.27472e-07
7.87537e-07
6.46228e-07
5.05094e-07
3.63858e-07
2.2142e-07
7.72595e-08
-6.80958e-08
-2.13981e-07
-3.6243e-07
-5.16086e-07
-6.43381e-07
-1.06201e-06
-6.28967e-07
1.12538e-06
2.06827e-06
1.46574e-06
1.33332e-06
1.20958e-06
1.06776e-06
9.29648e-07
7.89887e-07
6.48743e-07
5.07622e-07
3.66279e-07
2.23695e-07
7.94243e-08
-6.58665e-08
-2.11375e-07
-3.5883e-07
-5.11267e-07
-6.35177e-07
-1.0384e-06
-6.17076e-07
1.12975e-06
2.06735e-06
1.46628e-06
1.33311e-06
1.21101e-06
1.06974e-06
9.31898e-07
7.92409e-07
6.51448e-07
5.10333e-07
3.68878e-07
2.26174e-07
8.18733e-08
-6.31817e-08
-2.07965e-07
-3.53674e-07
-5.03321e-07
-6.21886e-07
-9.99407e-07
-5.98953e-07
1.12441e-06
2.03962e-06
1.45961e-06
1.33039e-06
1.21164e-06
1.07186e-06
9.34502e-07
7.95267e-07
6.5442e-07
5.1325e-07
3.71647e-07
2.28828e-07
8.45638e-08
-6.01131e-08
-2.03887e-07
-3.47238e-07
-4.92744e-07
-6.04402e-07
-9.47417e-07
-5.75429e-07
1.10929e-06
1.98723e-06
1.44765e-06
1.32665e-06
1.21238e-06
1.07466e-06
9.37779e-07
7.98631e-07
6.57732e-07
5.1638e-07
3.74554e-07
2.316e-07
8.74022e-08
-5.68159e-08
-1.99416e-07
-3.40033e-07
-4.80417e-07
-5.84155e-07
-8.85719e-07
-5.47584e-07
1.08475e-06
1.91455e-06
1.43353e-06
1.32387e-06
1.21437e-06
1.07871e-06
9.4202e-07
8.02633e-07
6.61422e-07
5.19709e-07
3.77549e-07
2.34402e-07
9.02507e-08
-5.35178e-08
-1.94946e-07
-3.32773e-07
-4.6757e-07
-5.63079e-07
-8.18463e-07
-5.16745e-07
1.05195e-06
1.82861e-06
1.42134e-06
1.32436e-06
1.21875e-06
1.08454e-06
9.4741e-07
8.07315e-07
6.65466e-07
5.23179e-07
3.80551e-07
2.37122e-07
9.29384e-08
-5.04958e-08
-1.90951e-07
-3.26307e-07
-4.55695e-07
-5.43506e-07
-7.50672e-07
-4.84524e-07
1.01197e-06
1.73902e-06
1.41639e-06
1.33043e-06
1.22655e-06
1.09245e-06
9.53969e-07
8.12597e-07
6.69763e-07
5.26688e-07
3.83455e-07
2.3963e-07
9.52776e-08
-4.80486e-08
-1.87929e-07
-3.21551e-07
-4.46481e-07
-5.28244e-07
-6.88214e-07
-4.52565e-07
9.71267e-07
1.66447e-06
1.4276e-06
1.34576e-06
1.23913e-06
1.10285e-06
9.61731e-07
8.18413e-07
6.74233e-07
5.30168e-07
3.86193e-07
2.41835e-07
9.7105e-08
-4.64765e-08
-1.86416e-07
-3.19557e-07
-4.42168e-07
-5.21726e-07
-6.40641e-07
-4.2472e-07
9.49751e-07
1.64005e-06
1.47193e-06
1.37679e-06
1.25921e-06
1.11676e-06
9.71081e-07
8.24902e-07
6.78938e-07
5.33647e-07
3.88769e-07
2.43699e-07
9.83179e-08
-4.60124e-08
-1.86954e-07
-3.21587e-07
-4.45701e-07
-5.30953e-07
-6.24596e-07
-4.12368e-07
9.82948e-07
1.6956e-06
1.54952e-06
1.42251e-06
1.2855e-06
1.13306e-06
9.81251e-07
8.31589e-07
6.83582e-07
5.36955e-07
3.91097e-07
2.45205e-07
9.89823e-08
-4.64936e-08
-1.89284e-07
-3.27237e-07
-4.56964e-07
-5.55878e-07
-6.50874e-07
-4.32683e-07
)
;

boundaryField
{
    top
    {
        type            zeroGradient;
    }
    bottom
    {
        type            zeroGradient;
    }
    inlet
    {
        type            fixedValue;
        value           uniform 0;
    }
    outlet
    {
        type            fixedValue;
        value           uniform 0;
    }
    frontAndBack
    {
        type            empty;
    }
}


// ************************************************************************* //
