/*--------------------------------*- C++ -*----------------------------------*\
  =========                 |
  \\      /  F ield         | OpenFOAM: The Open Source CFD Toolbox
   \\    /   O peration     | Website:  https://openfoam.org
    \\  /    A nd           | Version:  9
     \\/     M anipulation  |
\*---------------------------------------------------------------------------*/
FoamFile
{
    format      ascii;
    class       surfaceScalarField;
    location    "0.9";
    object      phi;
}
// * * * * * * * * * * * * * * * * * * * * * * * * * * * * * * * * * * * * * //

dimensions      [0 3 -1 0 0 0 0];

internalField   nonuniform List<scalar> 
760
(
1.24898e-06
-5.08798e-12
1.24899e-06
-4.37354e-12
1.24899e-06
-1.91185e-12
1.24899e-06
-9.61162e-13
1.24899e-06
-4.60139e-13
1.24899e-06
-1.80143e-13
1.24899e-06
-4.70214e-14
1.24899e-06
1.60595e-14
1.24899e-06
4.12837e-14
1.24899e-06
4.53472e-14
1.24899e-06
4.08657e-14
1.24899e-06
3.54853e-14
1.24899e-06
3.34995e-14
1.24899e-06
3.99685e-14
1.24899e-06
6.67318e-14
1.24899e-06
1.50274e-13
1.24899e-06
3.5012e-13
1.24899e-06
7.9081e-13
1.24899e-06
2.50366e-12
2.95047e-12
3.74699e-06
-1.20481e-11
3.747e-06
-1.15143e-11
3.747e-06
-6.04834e-12
3.747e-06
-3.17044e-12
3.747e-06
-1.5465e-12
3.747e-06
-6.25593e-13
3.747e-06
-1.61367e-13
3.747e-06
5.82491e-14
3.747e-06
1.46541e-13
3.747e-06
1.66905e-13
3.747e-06
1.58068e-13
3.747e-06
1.42898e-13
3.747e-06
1.37185e-13
3.747e-06
1.61258e-13
3.747e-06
2.57395e-13
3.747e-06
5.29571e-13
3.747e-06
1.16624e-12
3.747e-06
2.50199e-12
3.747e-06
6.11168e-12
6.59364e-12
6.24507e-06
-1.79431e-11
6.24508e-06
-1.8212e-11
6.24508e-06
-1.05979e-11
6.24509e-06
-5.73e-12
6.24509e-06
-2.82977e-12
6.24509e-06
-1.14488e-12
6.24509e-06
-2.69205e-13
6.24509e-06
1.47633e-13
6.24509e-06
3.14672e-13
6.24509e-06
3.53854e-13
6.24509e-06
3.37164e-13
6.24509e-06
3.07047e-13
6.24509e-06
2.94012e-13
6.24509e-06
3.37292e-13
6.24509e-06
5.13653e-13
6.24509e-06
9.91934e-13
6.24509e-06
2.07281e-12
6.24508e-06
4.23371e-12
6.24508e-06
8.94908e-12
9.1594e-12
8.74328e-06
-2.19818e-11
8.74329e-06
-2.30343e-11
8.74329e-06
-1.42493e-11
8.74329e-06
-7.88516e-12
8.74329e-06
-3.90603e-12
8.74329e-06
-1.53933e-12
8.74329e-06
-2.85139e-13
8.74329e-06
3.12379e-13
8.74329e-06
5.46739e-13
8.74329e-06
5.94908e-13
8.74329e-06
5.61648e-13
8.74329e-06
5.08635e-13
8.74329e-06
4.79965e-13
8.74329e-06
5.30724e-13
8.74329e-06
7.63505e-13
8.74329e-06
1.38646e-12
8.74329e-06
2.75918e-12
8.74329e-06
5.3628e-12
8.74329e-06
1.03834e-11
1.0332e-11
1.12417e-05
-2.37584e-11
1.12417e-05
-2.53493e-11
1.12417e-05
-1.62946e-11
1.12417e-05
-9.12587e-12
1.12417e-05
-4.47249e-12
1.12417e-05
-1.65124e-12
1.12417e-05
-1.39895e-13
1.12417e-05
5.73795e-13
1.12417e-05
8.40119e-13
1.12417e-05
8.76477e-13
1.12417e-05
8.1306e-13
1.12417e-05
7.2626e-13
1.12417e-05
6.69105e-13
1.12417e-05
7.04689e-13
1.12417e-05
9.45144e-13
1.12417e-05
1.60411e-12
1.12417e-05
3.03743e-12
1.12417e-05
5.63699e-12
1.12417e-05
1.02613e-11
1.00317e-11
1.37402e-05
-2.32386e-11
1.37402e-05
-2.50452e-11
1.37402e-05
-1.64469e-11
1.37402e-05
-9.19149e-12
1.37402e-05
-4.35541e-12
1.37402e-05
-1.38662e-12
1.37402e-05
2.05207e-13
1.37402e-05
9.38411e-13
1.37402e-05
1.18468e-12
1.37402e-05
1.18103e-12
1.37402e-05
1.0711e-12
1.37402e-05
9.38352e-13
1.37402e-05
8.37713e-13
1.37402e-05
8.30091e-13
1.37402e-05
1.01892e-12
1.37402e-05
1.58998e-12
1.37402e-05
2.8454e-12
1.37402e-05
5.03496e-12
1.37402e-05
8.73506e-12
8.41676e-12
1.62391e-05
-2.06049e-11
1.62391e-05
-2.23046e-11
1.62391e-05
-1.47247e-11
1.62391e-05
-8.03418e-12
1.62391e-05
-3.50974e-12
1.62391e-05
-7.2341e-13
1.62391e-05
7.50859e-13
1.62391e-05
1.39301e-12
1.62391e-05
1.56058e-12
1.62391e-05
1.48681e-12
1.62391e-05
1.3145e-12
1.62391e-05
1.12492e-12
1.62391e-05
9.66992e-13
1.62391e-05
8.89235e-13
1.62391e-05
9.69885e-13
1.62391e-05
1.34047e-12
1.62391e-05
2.21419e-12
1.62391e-05
3.68283e-12
1.62391e-05
6.08995e-12
5.74728e-12
1.87382e-05
-1.62011e-11
1.87381e-05
-1.75124e-11
1.87381e-05
-1.13634e-11
1.87381e-05
-5.77992e-12
1.87381e-05
-2.00737e-12
1.87381e-05
2.90032e-13
1.87381e-05
1.45817e-12
1.87381e-05
1.90376e-12
1.87381e-05
1.93819e-12
1.87381e-05
1.76844e-12
1.87381e-05
1.52209e-12
1.87381e-05
1.2689e-12
1.87381e-05
1.04449e-12
1.87381e-05
8.76505e-13
1.87381e-05
8.05763e-13
1.87381e-05
8.92086e-13
1.87381e-05
1.23996e-12
1.87381e-05
1.78729e-12
1.87381e-05
2.68332e-12
2.35071e-12
2.12375e-05
-1.04776e-11
2.12375e-05
-1.11824e-11
2.12375e-05
-6.75338e-12
2.12375e-05
-2.69092e-12
2.12375e-05
-1.78271e-14
2.12375e-05
1.54338e-12
2.12375e-05
2.25303e-12
2.12375e-05
2.41875e-12
2.12375e-05
2.28003e-12
2.12375e-05
1.99857e-12
2.12375e-05
1.67418e-12
2.12375e-05
1.35722e-12
2.12375e-05
1.06443e-12
2.12375e-05
7.97157e-13
2.12375e-05
5.51954e-13
2.12375e-05
3.08986e-13
2.12375e-05
5.65157e-14
2.12375e-05
-4.06423e-13
2.12375e-05
-1.10914e-12
-1.42462e-12
2.37372e-05
-3.95881e-12
2.37372e-05
-3.91693e-12
2.37372e-05
-1.39384e-12
2.37372e-05
8.71547e-13
2.37372e-05
2.21558e-12
2.37372e-05
2.87961e-12
2.37372e-05
3.03541e-12
2.37372e-05
2.87401e-12
2.37372e-05
2.54483e-12
2.37372e-05
2.15056e-12
2.37372e-05
1.75423e-12
2.37372e-05
1.38154e-12
2.37372e-05
1.02737e-12
2.37372e-05
6.64963e-13
2.37372e-05
2.45487e-13
2.37372e-05
-3.29674e-13
2.37372e-05
-1.18618e-12
2.37372e-05
-2.64495e-12
2.37372e-05
-4.91839e-12
-5.22957e-12
2.62372e-05
2.78347e-12
2.62372e-05
3.62391e-12
2.62372e-05
4.1469e-12
2.62372e-05
4.48397e-12
2.62372e-05
4.40523e-12
2.62372e-05
4.11558e-12
2.62372e-05
3.69333e-12
2.62372e-05
3.20263e-12
2.62372e-05
2.69325e-12
2.62372e-05
2.20202e-12
2.62372e-05
1.75091e-12
2.62372e-05
1.33898e-12
2.62372e-05
9.39439e-13
2.62372e-05
4.99349e-13
2.62372e-05
-7.12179e-14
2.62372e-05
-9.4105e-13
2.62372e-05
-2.33951e-12
2.62372e-05
-4.68764e-12
2.62372e-05
-8.40063e-12
-8.73286e-12
2.87375e-05
9.15796e-12
2.87375e-05
1.07501e-11
2.87375e-05
9.26825e-12
2.87375e-05
7.70093e-12
2.87375e-05
6.2531e-12
2.87375e-05
5.06752e-12
2.87375e-05
4.12015e-12
2.87375e-05
3.34587e-12
2.87375e-05
2.69481e-12
2.87375e-05
2.13887e-12
2.87375e-05
1.66006e-12
2.87375e-05
1.23267e-12
2.87375e-05
8.11372e-13
2.87375e-05
3.22442e-13
2.87375e-05
-3.56185e-13
2.87375e-05
-1.44835e-12
2.87375e-05
-3.27005e-12
2.87375e-05
-6.32201e-12
2.87375e-05
-1.12498e-11
-1.16348e-11
3.12382e-05
1.45775e-11
3.12382e-05
1.67687e-11
3.12382e-05
1.3379e-11
3.12381e-05
1.00994e-11
3.12381e-05
7.4896e-12
3.12381e-05
5.57951e-12
3.12381e-05
4.23372e-12
3.12381e-05
3.26509e-12
3.12381e-05
2.5349e-12
3.12381e-05
1.95917e-12
3.12381e-05
1.48657e-12
3.12381e-05
1.07196e-12
3.12381e-05
6.57329e-13
3.12381e-05
1.56219e-13
3.12381e-05
-5.73013e-13
3.12381e-05
-1.78899e-12
3.12381e-05
-3.87084e-12
3.12381e-05
-7.37618e-12
3.12382e-05
-1.32076e-11
-1.36788e-11
3.37391e-05
1.84947e-11
3.37391e-05
2.10211e-11
3.37391e-05
1.59453e-11
3.37391e-05
1.13311e-11
3.37391e-05
7.91509e-12
3.37391e-05
5.55287e-12
3.37391e-05
3.99472e-12
3.37391e-05
2.95247e-12
3.37391e-05
2.22055e-12
3.37391e-05
1.67594e-12
3.37391e-05
1.24528e-12
3.37391e-05
8.72168e-13
3.37391e-05
4.93535e-13
3.37391e-05
1.98549e-14
3.37391e-05
-6.95321e-13
3.37391e-05
-1.92145e-12
3.37391e-05
-4.07118e-12
3.37391e-05
-7.73029e-12
3.37391e-05
-1.40743e-11
-1.46634e-11
3.62402e-05
2.04254e-11
3.62402e-05
2.29254e-11
3.62402e-05
1.656e-11
3.62402e-05
1.11811e-11
3.62402e-05
7.44388e-12
3.62402e-05
4.97243e-12
3.62402e-05
3.42147e-12
3.62402e-05
2.43826e-12
3.62402e-05
1.78352e-12
3.62402e-05
1.31797e-12
3.62402e-05
9.60677e-13
3.62402e-05
6.53546e-13
3.62403e-05
3.36602e-13
3.62403e-05
-7.27636e-14
3.62403e-05
-7.10482e-13
3.62403e-05
-1.83124e-12
3.62402e-05
-3.84587e-12
3.62402e-05
-7.33012e-12
3.62402e-05
-1.37206e-11
-1.44531e-11
3.87417e-05
2.0031e-11
3.87417e-05
2.20721e-11
3.87417e-05
1.50294e-11
3.87417e-05
9.64099e-12
3.87417e-05
6.1427e-12
3.87417e-05
3.92632e-12
3.87417e-05
2.59673e-12
3.87417e-05
1.792e-12
3.87417e-05
1.27905e-12
3.87417e-05
9.27853e-13
3.87417e-05
6.64771e-13
3.87417e-05
4.39224e-13
3.87417e-05
2.01544e-13
3.87417e-05
-1.15303e-13
3.87417e-05
-6.22845e-13
3.87417e-05
-1.53629e-12
3.87417e-05
-3.22589e-12
3.87417e-05
-6.20518e-12
3.87417e-05
-1.21169e-11
-1.30032e-11
4.12433e-05
1.71461e-11
4.12433e-05
1.83257e-11
4.12433e-05
1.15206e-11
4.12433e-05
6.9786e-12
4.12433e-05
4.26304e-12
4.12433e-05
2.60986e-12
4.12433e-05
1.66367e-12
4.12433e-05
1.11546e-12
4.12433e-05
7.7928e-13
4.12433e-05
5.56547e-13
4.12433e-05
3.92967e-13
4.12433e-05
2.52131e-13
4.12433e-05
9.94431e-14
4.12433e-05
-1.10846e-13
4.12433e-05
-4.56029e-13
4.12433e-05
-1.09212e-12
4.12433e-05
-2.3099e-12
4.12433e-05
-4.49825e-12
4.12433e-05
-9.36785e-12
-1.03832e-11
4.37451e-05
1.20169e-11
4.37451e-05
1.21326e-11
4.37451e-05
6.72878e-12
4.37451e-05
3.8174e-12
4.37451e-05
2.23881e-12
4.37451e-05
1.31007e-12
4.37451e-05
8.05414e-13
4.37451e-05
5.26398e-13
4.37451e-05
3.61092e-13
4.37451e-05
2.54864e-13
4.37451e-05
1.78178e-13
4.37451e-05
1.11182e-13
4.37451e-05
3.52335e-14
4.37451e-05
-7.30823e-14
4.37451e-05
-2.5411e-13
4.37451e-05
-5.95316e-13
4.37451e-05
-1.2792e-12
4.37451e-05
-2.50895e-12
4.37451e-05
-5.81439e-12
-6.85249e-12
4.6247e-05
5.24347e-12
4.6247e-05
4.83825e-12
4.6247e-05
2.16471e-12
4.6247e-05
1.11863e-12
4.6247e-05
6.36809e-13
4.6247e-05
3.51349e-13
4.6247e-05
2.07522e-13
4.6247e-05
1.32576e-13
4.6247e-05
8.96275e-14
4.6247e-05
6.29829e-14
4.6247e-05
4.42333e-14
4.6247e-05
2.71362e-14
4.6247e-05
5.71063e-15
4.6247e-05
-2.60307e-14
4.6247e-05
-7.86581e-14
4.6247e-05
-1.80306e-13
4.6247e-05
-3.99124e-13
4.6247e-05
-7.70719e-13
4.6247e-05
-2.17045e-12
-2.86934e-12
4.8749e-05
4.8749e-05
4.8749e-05
4.8749e-05
4.8749e-05
4.8749e-05
4.8749e-05
4.8749e-05
4.8749e-05
4.8749e-05
4.8749e-05
4.8749e-05
4.8749e-05
4.8749e-05
4.8749e-05
4.8749e-05
4.8749e-05
4.8749e-05
4.8749e-05
)
;

boundaryField
{
    top
    {
        type            calculated;
        value           uniform 0;
    }
    bottom
    {
        type            calculated;
        value           uniform 0;
    }
    inlet
    {
        type            calculated;
        value           nonuniform List<scalar> 
20
(
-1.24898e-06
-3.74698e-06
-6.24507e-06
-8.74328e-06
-1.12417e-05
-1.37402e-05
-1.62391e-05
-1.87382e-05
-2.12375e-05
-2.37372e-05
-2.62372e-05
-2.87375e-05
-3.12382e-05
-3.37391e-05
-3.62403e-05
-3.87417e-05
-4.12433e-05
-4.37451e-05
-4.6247e-05
-4.8749e-05
)
;
    }
    outlet
    {
        type            calculated;
        value           nonuniform List<scalar> 
20
(
1.24898e-06
3.74699e-06
6.24508e-06
8.74329e-06
1.12417e-05
1.37402e-05
1.62391e-05
1.87381e-05
2.12375e-05
2.37372e-05
2.62372e-05
2.87375e-05
3.12382e-05
3.37391e-05
3.62402e-05
3.87417e-05
4.12433e-05
4.37451e-05
4.6247e-05
4.8749e-05
)
;
    }
    frontAndBack
    {
        type            empty;
        value           nonuniform List<scalar> 0();
    }
}


// ************************************************************************* //
