/*--------------------------------*- C++ -*----------------------------------*\
  =========                 |
  \\      /  F ield         | OpenFOAM: The Open Source CFD Toolbox
   \\    /   O peration     | Website:  https://openfoam.org
    \\  /    A nd           | Version:  9
     \\/     M anipulation  |
\*---------------------------------------------------------------------------*/
FoamFile
{
    format      ascii;
    class       volVectorField;
    location    "0.9";
    object      U;
}
// * * * * * * * * * * * * * * * * * * * * * * * * * * * * * * * * * * * * * //

dimensions      [0 1 -1 0 0 0 0];

internalField   nonuniform List<vector> 
400
(
(0.0249796 -2.52232e-08 0)
(0.0249797 -2.10639e-08 0)
(0.0249798 -8.25756e-09 0)
(0.0249798 -3.93117e-09 0)
(0.0249798 -1.8268e-09 0)
(0.0249798 -7.01401e-10 0)
(0.0249798 -1.98177e-10 0)
(0.0249798 5.37555e-11 0)
(0.0249798 1.582e-10 0)
(0.0249798 1.70121e-10 0)
(0.0249798 1.4588e-10 0)
(0.0249798 1.20425e-10 0)
(0.0249798 1.09506e-10 0)
(0.0249798 1.29578e-10 0)
(0.0249798 2.27408e-10 0)
(0.0249798 5.71288e-10 0)
(0.0249798 1.43711e-09 0)
(0.0249798 3.51612e-09 0)
(0.0249798 1.25731e-08 0)
(0.0249797 1.50619e-08 0)
(0.0749397 -8.53821e-08 0)
(0.0749398 -7.79523e-08 0)
(0.07494 -3.75477e-08 0)
(0.07494 -1.90928e-08 0)
(0.0749401 -9.21287e-09 0)
(0.0749401 -3.69254e-09 0)
(0.0749401 -9.93758e-10 0)
(0.0749401 2.72003e-10 0)
(0.0749401 7.8211e-10 0)
(0.0749401 8.90742e-10 0)
(0.0749401 8.294e-10 0)
(0.0749401 7.37547e-10 0)
(0.0749401 7.05357e-10 0)
(0.0749401 8.45885e-10 0)
(0.0749401 1.40971e-09 0)
(0.0749401 3.0772e-09 0)
(0.07494 7.0617e-09 0)
(0.07494 1.58322e-08 0)
(0.0749399 4.32617e-08 0)
(0.0749399 4.84668e-08 0)
(0.124901 -1.52188e-07 0)
(0.124901 -1.50115e-07 0)
(0.124902 -8.33287e-08 0)
(0.124902 -4.43121e-08 0)
(0.124902 -2.17664e-08 0)
(0.124902 -8.87024e-09 0)
(0.124902 -2.26765e-09 0)
(0.124902 8.76403e-10 0)
(0.124902 2.14646e-09 0)
(0.124902 2.45146e-09 0)
(0.124902 2.33791e-09 0)
(0.124902 2.12818e-09 0)
(0.124902 2.04996e-09 0)
(0.124902 2.39847e-09 0)
(0.124902 3.77289e-09 0)
(0.124902 7.56436e-09 0)
(0.124902 1.62839e-08 0)
(0.124902 3.42091e-08 0)
(0.124902 7.70947e-08 0)
(0.124902 8.09924e-08 0)
(0.174866 -2.04513e-07 0)
(0.174866 -2.10969e-07 0)
(0.174866 -1.27098e-07 0)
(0.174866 -6.96301e-08 0)
(0.174866 -3.45437e-08 0)
(0.174866 -1.39193e-08 0)
(0.174866 -3.08472e-09 0)
(0.174866 2.08086e-09 0)
(0.174866 4.1417e-09 0)
(0.174866 4.61553e-09 0)
(0.174866 4.39463e-09 0)
(0.174866 4.00432e-09 0)
(0.174866 3.82426e-09 0)
(0.174866 4.33914e-09 0)
(0.174866 6.47543e-09 0)
(0.174866 1.21877e-08 0)
(0.174866 2.49098e-08 0)
(0.174866 4.96646e-08 0)
(0.174866 9.98673e-08 0)
(0.174866 1.00882e-07 0)
(0.224833 -2.34448e-07 0)
(0.224833 -2.47995e-07 0)
(0.224833 -1.57037e-07 0)
(0.224833 -8.76712e-08 0)
(0.224833 -4.33955e-08 0)
(0.224833 -1.6786e-08 0)
(0.224833 -2.58093e-09 0)
(0.224833 4.1779e-09 0)
(0.224833 6.79003e-09 0)
(0.224833 7.27426e-09 0)
(0.224833 6.82954e-09 0)
(0.224833 6.16074e-09 0)
(0.224833 5.76787e-09 0)
(0.224833 6.26444e-09 0)
(0.224833 8.76666e-09 0)
(0.224833 1.54648e-08 0)
(0.224833 3.00713e-08 0)
(0.224833 5.71119e-08 0)
(0.224833 1.067e-07 0)
(0.224833 1.05328e-07 0)
(0.274805 -2.40503e-07 0)
(0.274805 -2.57996e-07 0)
(0.274805 -1.68357e-07 0)
(0.274805 -9.45845e-08 0)
(0.274805 -4.59145e-08 0)
(0.274805 -1.61705e-08 0)
(0.274805 -1.83098e-10 0)
(0.274805 7.31366e-09 0)
(0.274805 1.00167e-08 0)
(0.274805 1.02545e-08 0)
(0.274805 9.42944e-09 0)
(0.274805 8.36167e-09 0)
(0.274805 7.60961e-09 0)
(0.274805 7.81876e-09 0)
(0.274805 1.01093e-08 0)
(0.274805 1.65499e-08 0)
(0.274805 3.05297e-08 0)
(0.274805 5.53366e-08 0)
(0.274805 9.79631e-08 0)
(0.274805 9.52051e-08 0)
(0.324781 -2.24053e-07 0)
(0.324781 -2.42092e-07 0)
(0.324781 -1.60178e-07 0)
(0.324781 -8.90225e-08 0)
(0.324781 -4.10666e-08 0)
(0.324781 -1.15003e-08 0)
(0.324781 4.31603e-09 0)
(0.324781 1.14669e-08 0)
(0.324781 1.36805e-08 0)
(0.324781 1.33654e-08 0)
(0.324781 1.19899e-08 0)
(0.324781 1.04012e-08 0)
(0.324781 9.13735e-09 0)
(0.324781 8.76885e-09 0)
(0.324781 1.02387e-08 0)
(0.324781 1.51851e-08 0)
(0.324781 2.62461e-08 0)
(0.324781 4.5145e-08 0)
(0.324781 7.63504e-08 0)
(0.324781 7.30418e-08 0)
(0.374763 -1.87869e-07 0)
(0.374763 -2.03362e-07 0)
(0.374763 -1.33993e-07 0)
(0.374763 -7.14859e-08 0)
(0.374763 -2.9029e-08 0)
(0.374763 -2.92121e-09 0)
(0.374763 1.07208e-08 0)
(0.374763 1.64005e-08 0)
(0.374763 1.75325e-08 0)
(0.374763 1.63693e-08 0)
(0.374763 1.42968e-08 0)
(0.374763 1.2092e-08 0)
(0.374763 1.01938e-08 0)
(0.374763 9.00035e-09 0)
(0.374763 9.12978e-09 0)
(0.374763 1.15683e-08 0)
(0.374763 1.79326e-08 0)
(0.374763 2.83539e-08 0)
(0.374763 4.52321e-08 0)
(0.374763 4.18726e-08 0)
(0.424751 -1.36012e-07 0)
(0.424751 -1.46418e-07 0)
(0.424751 -9.30494e-08 0)
(0.42475 -4.40006e-08 0)
(0.42475 -1.10576e-08 0)
(0.42475 8.74621e-09 0)
(0.42475 1.84499e-08 0)
(0.42475 2.16753e-08 0)
(0.42475 2.12298e-08 0)
(0.42475 1.89974e-08 0)
(0.42475 1.6142e-08 0)
(0.42475 1.32814e-08 0)
(0.42475 1.06881e-08 0)
(0.42475 8.51635e-09 0)
(0.42475 6.96226e-09 0)
(0.42475 6.23355e-09 0)
(0.42475 6.79652e-09 0)
(0.42475 7.30262e-09 0)
(0.42475 8.35903e-09 0)
(0.424751 5.14814e-09 0)
(0.474745 -7.34263e-08 0)
(0.474744 -7.6922e-08 0)
(0.474744 -4.18937e-08 0)
(0.474744 -9.77195e-09 0)
(0.474744 1.07196e-08 0)
(0.474744 2.21217e-08 0)
(0.474744 2.66043e-08 0)
(0.474744 2.66933e-08 0)
(0.474744 2.43665e-08 0)
(0.474744 2.09715e-08 0)
(0.474744 1.73395e-08 0)
(0.474744 1.38602e-08 0)
(0.474744 1.05955e-08 0)
(0.474744 7.41848e-09 0)
(0.474744 4.06358e-09 0)
(0.474744 -7.32079e-11 0)
(0.474744 -5.69697e-09 0)
(0.474744 -1.54562e-08 0)
(0.474744 -3.04949e-08 0)
(0.474744 -3.3599e-08 0)
(0.524745 -5.6644e-09 0)
(0.524744 -1.26584e-09 0)
(0.524744 1.40421e-08 0)
(0.524744 2.7182e-08 0)
(0.524744 3.35697e-08 0)
(0.524744 3.54476e-08 0)
(0.524744 3.40852e-08 0)
(0.524744 3.07746e-08 0)
(0.524744 2.65234e-08 0)
(0.524744 2.2037e-08 0)
(0.524744 1.77446e-08 0)
(0.524744 1.37704e-08 0)
(0.524744 9.95122e-09 0)
(0.524744 5.87971e-09 0)
(0.524744 8.45674e-10 0)
(0.524744 -6.51644e-09 0)
(0.524744 -1.8017e-08 0)
(0.524744 -3.74085e-08 0)
(0.524744 -6.77237e-08 0)
(0.524744 -7.09241e-08 0)
(0.574751 6.13927e-08 0)
(0.574751 7.37281e-08 0)
(0.574751 6.88154e-08 0)
(0.574751 6.24124e-08 0)
(0.57475 5.44746e-08 0)
(0.57475 4.68221e-08 0)
(0.57475 3.97536e-08 0)
(0.57475 3.32618e-08 0)
(0.57475 2.73337e-08 0)
(0.57475 2.20012e-08 0)
(0.57475 1.72747e-08 0)
(0.57475 1.30121e-08 0)
(0.57475 8.84196e-09 0)
(0.57475 4.1146e-09 0)
(0.57475 -2.2564e-09 0)
(0.57475 -1.22765e-08 0)
(0.57475 -2.87233e-08 0)
(0.57475 -5.62542e-08 0)
(0.57475 -1.00048e-07 0)
(0.574751 -1.03641e-07 0)
(0.624763 1.21773e-07 0)
(0.624763 1.41059e-07 0)
(0.624763 1.16358e-07 0)
(0.624763 9.1458e-08 0)
(0.624763 7.04962e-08 0)
(0.624763 5.44736e-08 0)
(0.624763 4.26178e-08 0)
(0.624763 3.36388e-08 0)
(0.624763 2.65554e-08 0)
(0.624763 2.07753e-08 0)
(0.624763 1.59297e-08 0)
(0.624763 1.16472e-08 0)
(0.624763 7.39492e-09 0)
(0.624763 2.34994e-09 0)
(0.624763 -4.83963e-09 0)
(0.624763 -1.6639e-08 0)
(0.624763 -3.6589e-08 0)
(0.624763 -7.00425e-08 0)
(0.624763 -1.24618e-07 0)
(0.624763 -1.28936e-07 0)
(0.674782 1.69739e-07 0)
(0.674781 1.93878e-07 0)
(0.674781 1.50906e-07 0)
(0.674781 1.10331e-07 0)
(0.674781 7.91819e-08 0)
(0.674781 5.70582e-08 0)
(0.674781 4.20273e-08 0)
(0.674781 3.16499e-08 0)
(0.674781 2.41387e-08 0)
(0.674781 1.84098e-08 0)
(0.674781 1.38071e-08 0)
(0.674781 9.80071e-09 0)
(0.674781 5.76553e-09 0)
(0.674781 7.97311e-10 0)
(0.674781 -6.58102e-09 0)
(0.674781 -1.90691e-08 0)
(0.674781 -4.07046e-08 0)
(0.674781 -7.72871e-08 0)
(0.674781 -1.39118e-07 0)
(0.674781 -1.44494e-07 0)
(0.724805 2.00018e-07 0)
(0.724805 2.25838e-07 0)
(0.724805 1.67591e-07 0)
(0.724805 1.16059e-07 0)
(0.724805 7.90049e-08 0)
(0.724805 5.39481e-08 0)
(0.724805 3.78488e-08 0)
(0.724805 2.73953e-08 0)
(0.724805 2.02747e-08 0)
(0.724805 1.51147e-08 0)
(0.724805 1.11066e-08 0)
(0.724805 7.65398e-09 0)
(0.724805 4.12228e-09 0)
(0.724805 -3.7264e-10 0)
(0.724805 -7.27803e-09 0)
(0.724805 -1.92748e-08 0)
(0.724805 -4.05694e-08 0)
(0.724805 -7.7085e-08 0)
(0.724805 -1.41864e-07 0)
(0.724805 -1.48598e-07 0)
(0.774833 2.08363e-07 0)
(0.774833 2.31707e-07 0)
(0.774833 1.63079e-07 0)
(0.774833 1.07332e-07 0)
(0.774833 6.97683e-08 0)
(0.774833 4.54698e-08 0)
(0.774833 3.05784e-08 0)
(0.774833 2.1378e-08 0)
(0.774833 1.54061e-08 0)
(0.774833 1.12552e-08 0)
(0.774834 8.11764e-09 0)
(0.774834 5.42993e-09 0)
(0.774834 2.62855e-09 0)
(0.774834 -1.05323e-09 0)
(0.774834 -6.88178e-09 0)
(0.774834 -1.72584e-08 0)
(0.774833 -3.6179e-08 0)
(0.774833 -6.92358e-08 0)
(0.774833 -1.31961e-07 0)
(0.774833 -1.40286e-07 0)
(0.824866 1.91499e-07 0)
(0.824866 2.07862e-07 0)
(0.824866 1.36617e-07 0)
(0.824866 8.51199e-08 0)
(0.824866 5.29515e-08 0)
(0.824866 3.3014e-08 0)
(0.824866 2.13527e-08 0)
(0.824866 1.44685e-08 0)
(0.824866 1.01827e-08 0)
(0.824866 7.30875e-09 0)
(0.824866 5.1845e-09 0)
(0.824866 3.36374e-09 0)
(0.824866 1.41861e-09 0)
(0.824866 -1.22316e-09 0)
(0.824866 -5.5219e-09 0)
(0.824866 -1.33624e-08 0)
(0.824866 -2.81147e-08 0)
(0.824866 -5.44247e-08 0)
(0.824866 -1.09423e-07 0)
(0.824866 -1.19367e-07 0)
(0.874902 1.49094e-07 0)
(0.874902 1.5514e-07 0)
(0.874902 9.2098e-08 0)
(0.874902 5.38082e-08 0)
(0.874902 3.20367e-08 0)
(0.874902 1.9082e-08 0)
(0.874902 1.1882e-08 0)
(0.874902 7.82665e-09 0)
(0.874902 5.39676e-09 0)
(0.874902 3.81924e-09 0)
(0.874902 2.6746e-09 0)
(0.874902 1.68276e-09 0)
(0.874902 5.80433e-10 0)
(0.874902 -9.7062e-10 0)
(0.874902 -3.54445e-09 0)
(0.874902 -8.35389e-09 0)
(0.874902 -1.77891e-08 0)
(0.874902 -3.48411e-08 0)
(0.874902 -7.6273e-08 0)
(0.874902 -8.70955e-08 0)
(0.92494 8.70829e-08 0)
(0.92494 8.45274e-08 0)
(0.92494 4.24642e-08 0)
(0.92494 2.26397e-08 0)
(0.92494 1.28671e-08 0)
(0.92494 7.23192e-09 0)
(0.92494 4.30293e-09 0)
(0.92494 2.74873e-09 0)
(0.92494 1.85455e-09 0)
(0.92494 1.29524e-09 0)
(0.92494 8.97745e-10 0)
(0.92494 5.42533e-10 0)
(0.92494 1.17647e-10 0)
(0.92494 -5.07022e-10 0)
(0.92494 -1.56341e-09 0)
(0.92494 -3.59264e-09 0)
(0.92494 -7.80613e-09 0)
(0.92494 -1.53413e-08 0)
(0.92494 -3.89328e-08 0)
(0.92494 -4.81495e-08 0)
(0.97498 2.66047e-08 0)
(0.97498 2.38781e-08 0)
(0.97498 9.4622e-09 0)
(0.97498 4.34987e-09 0)
(0.97498 2.32045e-09 0)
(0.97498 1.17541e-09 0)
(0.97498 6.47786e-10 0)
(0.97498 3.97864e-10 0)
(0.97498 2.63543e-10 0)
(0.97498 1.84329e-10 0)
(0.97498 1.29617e-10 0)
(0.97498 7.41903e-11 0)
(0.97498 -7.50375e-12 0)
(0.97498 -1.35217e-10 0)
(0.97498 -3.41605e-10 0)
(0.97498 -7.52107e-10 0)
(0.97498 -1.70183e-09 0)
(0.97498 -3.30871e-09 0)
(0.97498 -1.03851e-08 0)
(0.97498 -1.40619e-08 0)
)
;

boundaryField
{
    top
    {
        type            fixedValue;
        value           uniform (1 0 0);
    }
    bottom
    {
        type            fixedValue;
        value           uniform (0 0 0);
    }
    inlet
    {
        type            zeroGradient;
    }
    outlet
    {
        type            zeroGradient;
    }
    frontAndBack
    {
        type            empty;
    }
}


// ************************************************************************* //
