/*--------------------------------*- C++ -*----------------------------------*\
  =========                 |
  \\      /  F ield         | OpenFOAM: The Open Source CFD Toolbox
   \\    /   O peration     | Website:  https://openfoam.org
    \\  /    A nd           | Version:  9
     \\/     M anipulation  |
\*---------------------------------------------------------------------------*/
FoamFile
{
    format      ascii;
    class       volScalarField;
    location    "4.7";
    object      p;
}
// * * * * * * * * * * * * * * * * * * * * * * * * * * * * * * * * * * * * * //

dimensions      [0 2 -2 0 0 0 0];

internalField   nonuniform List<scalar> 
400
(
9.09208e-12
1.50679e-11
1.45705e-11
1.38608e-11
1.26939e-11
1.13112e-11
9.87049e-12
8.40471e-12
6.93815e-12
5.48325e-12
4.03347e-12
2.57931e-12
1.11768e-12
-3.50993e-13
-1.82524e-12
-3.30777e-12
-4.76013e-12
-6.07756e-12
-7.74269e-12
-4.89201e-12
8.62487e-12
1.43599e-11
1.38185e-11
1.34101e-11
1.24203e-11
1.11461e-11
9.77494e-12
8.35128e-12
6.90947e-12
5.46889e-12
4.02734e-12
2.57848e-12
1.12174e-12
-3.39563e-13
-1.79855e-12
-3.2501e-12
-4.63799e-12
-5.79734e-12
-7.5602e-12
-4.7675e-12
8.71942e-12
1.44211e-11
1.33942e-11
1.31175e-11
1.22237e-11
1.10163e-11
9.6949e-12
8.30387e-12
6.88213e-12
5.45341e-12
4.01911e-12
2.57524e-12
1.12318e-12
-3.32036e-13
-1.78007e-12
-3.21384e-12
-4.57515e-12
-5.65982e-12
-7.8029e-12
-4.9425e-12
9.05386e-12
1.50491e-11
1.33046e-11
1.2994e-11
1.21175e-11
1.09321e-11
9.63688e-12
8.26593e-12
6.85755e-12
5.43733e-12
4.00881e-12
2.56924e-12
1.12101e-12
-3.30303e-13
-1.77352e-12
-3.20476e-12
-4.57544e-12
-5.66946e-12
-8.29509e-12
-5.21388e-12
9.4206e-12
1.59198e-11
1.33883e-11
1.2966e-11
1.20657e-11
1.08763e-11
9.59263e-12
8.23341e-12
6.8339e-12
5.42018e-12
3.99675e-12
2.56106e-12
1.11566e-12
-3.33684e-13
-1.77648e-12
-3.21436e-12
-4.61353e-12
-5.7502e-12
-8.84595e-12
-5.47188e-12
9.75918e-12
1.68608e-11
1.35578e-11
1.29895e-11
1.20463e-11
1.08378e-11
9.5562e-12
8.2036e-12
6.81048e-12
5.40212e-12
3.9833e-12
2.55108e-12
1.10789e-12
-3.41006e-13
-1.78607e-12
-3.23488e-12
-4.66969e-12
-5.85568e-12
-9.35109e-12
-5.68171e-12
1.00578e-11
1.77766e-11
1.37631e-11
1.30377e-11
1.20442e-11
1.08089e-11
9.52372e-12
8.17487e-12
6.78698e-12
5.38354e-12
3.96882e-12
2.53988e-12
1.09821e-12
-3.50681e-13
-1.7991e-12
-3.25974e-12
-4.72943e-12
-5.95802e-12
-9.75785e-12
-5.83751e-12
1.03047e-11
1.85893e-11
1.39641e-11
1.30877e-11
1.2046e-11
1.07824e-11
9.49195e-12
8.14574e-12
6.76299e-12
5.36448e-12
3.95378e-12
2.52794e-12
1.08775e-12
-3.61175e-13
-1.81238e-12
-3.28204e-12
-4.78009e-12
-6.03635e-12
-1.00292e-11
-5.93325e-12
1.04925e-11
1.9238e-11
1.41282e-11
1.31212e-11
1.20408e-11
1.07534e-11
9.4584e-12
8.11566e-12
6.73843e-12
5.34512e-12
3.93871e-12
2.516e-12
1.07763e-12
-3.707e-13
-1.82275e-12
-3.29597e-12
-4.81106e-12
-6.07536e-12
-1.01444e-11
-5.96755e-12
1.06154e-11
1.96782e-11
1.4233e-11
1.31266e-11
1.20223e-11
1.07196e-11
9.42255e-12
8.0845e-12
6.71349e-12
5.3261e-12
3.92441e-12
2.50481e-12
1.06882e-12
-3.77514e-13
-1.82746e-12
-3.29723e-12
-4.81492e-12
-6.06615e-12
-1.00957e-11
-5.94058e-12
1.06697e-11
1.98812e-11
1.42663e-11
1.30995e-11
1.19889e-11
1.06807e-11
9.38553e-12
8.05328e-12
6.6897e-12
5.30806e-12
3.91087e-12
2.49519e-12
1.06263e-12
-3.80696e-13
-1.82505e-12
-3.28353e-12
-4.78864e-12
-6.00607e-12
-9.88689e-12
-5.85493e-12
1.06516e-11
1.98328e-11
1.42252e-11
1.30421e-11
1.1943e-11
1.06397e-11
9.34978e-12
8.02443e-12
6.66775e-12
5.29196e-12
3.89923e-12
2.48748e-12
1.05847e-12
-3.79396e-13
-1.81473e-12
-3.25523e-12
-4.73244e-12
-5.89787e-12
-9.53164e-12
-5.71479e-12
1.05581e-11
1.95345e-11
1.41173e-11
1.29626e-11
1.18915e-11
1.06018e-11
9.31888e-12
8.00012e-12
6.64935e-12
5.27882e-12
3.88984e-12
2.48166e-12
1.05708e-12
-3.7395e-13
-1.79756e-12
-3.21428e-12
-4.65117e-12
-5.74979e-12
-9.05185e-12
-5.52536e-12
1.03875e-11
1.90054e-11
1.39606e-11
1.28758e-11
1.18437e-11
1.05733e-11
9.29679e-12
7.98286e-12
6.63662e-12
5.26905e-12
3.88311e-12
2.47823e-12
1.05819e-12
-3.65751e-13
-1.77629e-12
-3.1657e-12
-4.55276e-12
-5.57509e-12
-8.47982e-12
-5.29508e-12
1.01406e-11
1.82856e-11
1.37851e-11
1.2801e-11
1.18117e-11
1.05605e-11
9.2877e-12
7.97517e-12
6.62973e-12
5.26355e-12
3.87899e-12
2.47677e-12
1.0604e-12
-3.5622e-13
-1.7547e-12
-3.11592e-12
-4.44916e-12
-5.39303e-12
-7.85462e-12
-5.03346e-12
9.82476e-12
1.74404e-11
1.36298e-11
1.27613e-11
1.18072e-11
1.05696e-11
9.29461e-12
7.97825e-12
6.63015e-12
5.2628e-12
3.87762e-12
2.47615e-12
1.06262e-12
-3.48572e-13
-1.73579e-12
-3.07344e-12
-4.35536e-12
-5.22668e-12
-7.22478e-12
-4.75315e-12
9.44506e-12
1.65589e-11
1.35452e-11
1.27796e-11
1.18414e-11
1.06049e-11
9.31862e-12
7.99228e-12
6.63791e-12
5.26638e-12
3.8785e-12
2.47646e-12
1.06416e-12
-3.44886e-13
-1.72565e-12
-3.04779e-12
-4.28798e-12
-5.10289e-12
-6.64779e-12
-4.4684e-12
9.05659e-12
1.58152e-11
1.3618e-11
1.28929e-11
1.19291e-11
1.06723e-11
9.36096e-12
8.0176e-12
6.65179e-12
5.27378e-12
3.88162e-12
2.47708e-12
1.06221e-12
-3.4857e-13
-1.73013e-12
-3.04953e-12
-4.27018e-12
-5.0669e-12
-6.21828e-12
-4.21726e-12
8.83731e-12
1.55356e-11
1.40075e-11
1.31617e-11
1.20949e-11
1.07798e-11
9.42532e-12
8.05477e-12
6.67278e-12
5.28516e-12
3.88672e-12
2.47678e-12
1.05645e-12
-3.61457e-13
-1.75472e-12
-3.09252e-12
-4.33159e-12
-5.18936e-12
-6.10383e-12
-4.11831e-12
9.10926e-12
1.60015e-11
1.4707e-11
1.35715e-11
1.23249e-11
1.0916e-11
9.50268e-12
8.09911e-12
6.69866e-12
5.29968e-12
3.89256e-12
2.47581e-12
1.04803e-12
-3.82156e-13
-1.79618e-12
-3.16948e-12
-4.46822e-12
-5.46348e-12
-6.40223e-12
-4.3462e-12
)
;

boundaryField
{
    top
    {
        type            zeroGradient;
    }
    bottom
    {
        type            zeroGradient;
    }
    inlet
    {
        type            fixedValue;
        value           uniform 0;
    }
    outlet
    {
        type            fixedValue;
        value           uniform 0;
    }
    frontAndBack
    {
        type            empty;
    }
}


// ************************************************************************* //
