/*--------------------------------*- C++ -*----------------------------------*\
  =========                 |
  \\      /  F ield         | OpenFOAM: The Open Source CFD Toolbox
   \\    /   O peration     | Website:  https://openfoam.org
    \\  /    A nd           | Version:  9
     \\/     M anipulation  |
\*---------------------------------------------------------------------------*/
FoamFile
{
    format      ascii;
    class       surfaceScalarField;
    location    "4.7";
    object      phi;
}
// * * * * * * * * * * * * * * * * * * * * * * * * * * * * * * * * * * * * * //

dimensions      [0 3 -1 0 0 0 0];

internalField   nonuniform List<scalar> 
760
(
1.25e-06
-5.56902e-17
1.25e-06
-4.63428e-17
1.25e-06
-2.20729e-17
1.25e-06
-1.25562e-17
1.25e-06
-7.20762e-18
1.25e-06
-3.96073e-18
1.25e-06
-2.17033e-18
1.25e-06
-1.13639e-18
1.25e-06
-5.5464e-19
1.25e-06
-2.52693e-19
1.25e-06
-9.52144e-20
1.25e-06
2.06546e-21
1.25e-06
9.08127e-20
1.25e-06
2.34568e-19
1.25e-06
5.58385e-19
1.25e-06
1.41205e-18
1.25e-06
3.36973e-18
1.25e-06
7.52818e-18
1.25e-06
2.3721e-17
2.73822e-17
3.75e-06
-1.34071e-16
3.75e-06
-1.25634e-16
3.75e-06
-7.18307e-17
3.75e-06
-4.27532e-17
3.75e-06
-2.52296e-17
3.75e-06
-1.43546e-17
3.75e-06
-8.01734e-18
3.75e-06
-4.3159e-18
3.75e-06
-2.19562e-18
3.75e-06
-1.0249e-18
3.75e-06
-3.83789e-19
3.75e-06
4.15347e-21
3.75e-06
3.38518e-19
3.75e-06
8.64518e-19
3.75e-06
2.01719e-18
3.75e-06
4.79701e-18
3.75e-06
1.09998e-17
3.75e-06
2.36177e-17
3.75e-06
5.75679e-17
6.08424e-17
6.25e-06
-2.03914e-16
6.25e-06
-2.04581e-16
6.25e-06
-1.30048e-16
6.25e-06
-8.05349e-17
6.25e-06
-4.8801e-17
6.25e-06
-2.84386e-17
6.25e-06
-1.61374e-17
6.25e-06
-8.8262e-18
6.25e-06
-4.57676e-18
6.25e-06
-2.17867e-18
6.25e-06
-8.44572e-19
6.25e-06
-4.78273e-20
6.25e-06
6.10003e-19
6.25e-06
1.59929e-18
6.25e-06
3.71227e-18
6.25e-06
8.58213e-18
6.25e-06
1.90628e-17
6.25e-06
3.94325e-17
6.25e-06
8.3534e-17
8.35983e-17
8.75e-06
-2.56212e-16
8.75e-06
-2.66854e-16
8.75e-06
-1.81642e-16
8.75e-06
-1.16554e-16
8.75e-06
-7.23369e-17
8.75e-06
-4.29884e-17
8.75e-06
-2.47309e-17
8.75e-06
-1.36878e-17
8.75e-06
-7.18333e-18
8.75e-06
-3.4682e-18
8.75e-06
-1.39396e-18
8.75e-06
-1.81757e-19
8.75e-06
7.65342e-19
8.75e-06
2.10714e-18
8.75e-06
4.90932e-18
8.75e-06
1.11972e-17
8.75e-06
2.439e-17
8.75e-06
4.87801e-17
8.75e-06
9.54071e-17
9.25318e-17
1.125e-05
-2.85624e-16
1.125e-05
-3.04132e-16
1.125e-05
-2.17306e-16
1.125e-05
-1.43604e-16
1.125e-05
-9.10165e-17
1.125e-05
-5.50017e-17
1.125e-05
-3.20134e-17
1.125e-05
-1.7876e-17
1.125e-05
-9.45514e-18
1.125e-05
-4.60972e-18
1.125e-05
-1.91175e-18
1.125e-05
-3.88725e-19
1.125e-05
6.96213e-19
1.125e-05
2.11988e-18
1.125e-05
5.0488e-18
1.125e-05
1.15733e-17
1.125e-05
2.50999e-17
1.125e-05
4.9109e-17
1.125e-05
9.15877e-17
8.68146e-17
1.375e-05
-2.90728e-16
1.375e-05
-3.13575e-16
1.375e-05
-2.32147e-16
1.375e-05
-1.57128e-16
1.375e-05
-1.0139e-16
1.375e-05
-6.21359e-17
1.375e-05
-3.65124e-17
1.375e-05
-2.05107e-17
1.375e-05
-1.08895e-17
1.375e-05
-5.33469e-18
1.375e-05
-2.26948e-18
1.375e-05
-6.3667e-19
1.375e-05
3.64836e-19
1.375e-05
1.49667e-18
1.375e-05
3.85765e-18
1.375e-05
9.27372e-18
1.375e-05
2.06531e-17
1.375e-05
4.02453e-17
1.375e-05
7.3547e-17
6.8001e-17
1.625e-05
-2.72491e-16
1.625e-05
-2.95752e-16
1.625e-05
-2.24857e-16
1.625e-05
-1.5512e-16
1.625e-05
-1.01622e-16
1.625e-05
-6.30081e-17
1.625e-05
-3.72951e-17
1.625e-05
-2.10052e-17
1.625e-05
-1.11352e-17
1.625e-05
-5.43968e-18
1.625e-05
-2.36559e-18
1.625e-05
-8.72637e-19
1.625e-05
-2.14405e-19
1.625e-05
2.54714e-19
1.625e-05
1.37586e-18
1.625e-05
4.4457e-18
1.625e-05
1.15652e-17
1.625e-05
2.3613e-17
1.625e-05
4.41877e-17
3.87147e-17
1.875e-05
-2.33859e-16
1.875e-05
-2.53802e-16
1.875e-05
-1.96909e-16
1.875e-05
-1.37904e-16
1.875e-05
-9.1525e-17
1.875e-05
-5.73007e-17
1.875e-05
-3.40718e-17
1.875e-05
-1.91587e-17
1.875e-05
-1.00607e-17
1.875e-05
-4.84252e-18
1.875e-05
-2.13998e-18
1.875e-05
-1.04663e-18
1.875e-05
-9.6659e-19
1.875e-05
-1.46763e-18
1.875e-05
-2.10539e-18
1.875e-05
-2.29113e-18
1.875e-05
-9.26531e-19
1.875e-05
1.56178e-18
1.875e-05
7.28831e-18
2.371e-18
2.125e-05
-1.79121e-16
2.125e-05
-1.92644e-16
2.125e-05
-1.51947e-16
2.125e-05
-1.07764e-16
2.125e-05
-7.24187e-17
2.125e-05
-4.57422e-17
2.125e-05
-2.72394e-17
2.125e-05
-1.51735e-17
2.125e-05
-7.76871e-18
2.125e-05
-3.59445e-18
2.125e-05
-1.60236e-18
2.125e-05
-1.11653e-18
2.125e-05
-1.78033e-18
2.125e-05
-3.44141e-18
2.125e-05
-6.11893e-18
2.125e-05
-1.00253e-17
2.125e-05
-1.51592e-17
2.125e-05
-2.31048e-17
2.125e-05
-3.31026e-17
-3.73546e-17
2.375e-05
-1.13613e-16
2.375e-05
-1.18511e-16
2.375e-05
-9.52288e-17
2.375e-05
-6.85426e-17
2.375e-05
-4.68814e-17
2.375e-05
-2.99421e-17
2.375e-05
-1.77779e-17
2.375e-05
-9.62993e-18
2.375e-05
-4.60945e-18
2.375e-05
-1.87017e-18
2.375e-05
-8.08574e-19
2.375e-05
-1.07096e-18
2.375e-05
-2.54587e-18
2.375e-05
-5.38008e-18
2.375e-05
-1.01042e-17
2.375e-05
-1.77189e-17
2.375e-05
-2.93087e-17
2.375e-05
-4.74883e-17
2.375e-05
-7.29586e-17
-7.67273e-17
2.625e-05
-4.33238e-17
2.625e-05
-3.85082e-17
2.625e-05
-3.31037e-17
2.625e-05
-2.51495e-17
2.625e-05
-1.83592e-17
2.625e-05
-1.21731e-17
2.625e-05
-7.09987e-18
2.625e-05
-3.39147e-18
2.625e-05
-1.05781e-18
2.625e-05
5.28149e-20
2.625e-05
9.09909e-20
2.625e-05
-9.16354e-19
2.625e-05
-3.12974e-18
2.625e-05
-7.01891e-18
2.625e-05
-1.35195e-17
2.625e-05
-2.43496e-17
2.625e-05
-4.16452e-17
2.625e-05
-6.88773e-17
2.625e-05
-1.08525e-16
-1.12202e-16
2.875e-05
2.54075e-17
2.875e-05
3.97657e-17
2.875e-05
2.74749e-17
2.875e-05
1.69616e-17
2.875e-05
9.24733e-18
2.875e-05
4.98223e-18
2.875e-05
3.17554e-18
2.875e-05
2.57299e-18
2.875e-05
2.29891e-18
2.875e-05
1.8513e-18
2.875e-05
9.5154e-19
2.875e-05
-6.88808e-19
2.875e-05
-3.48106e-18
2.875e-05
-8.11894e-18
2.875e-05
-1.58838e-17
2.875e-05
-2.90646e-17
2.875e-05
-5.06728e-17
2.875e-05
-8.4943e-17
2.875e-05
-1.36527e-16
-1.40623e-16
3.125e-05
8.62554e-17
3.125e-05
1.08631e-16
3.125e-05
7.95227e-17
3.125e-05
5.23737e-17
3.125e-05
3.21486e-17
3.125e-05
1.90377e-17
3.125e-05
1.14989e-17
3.125e-05
7.3326e-18
3.125e-05
4.91344e-18
3.125e-05
3.23206e-18
3.125e-05
1.61467e-18
3.125e-05
-4.52337e-19
3.125e-05
-3.54767e-18
3.125e-05
-8.51666e-18
3.125e-05
-1.68661e-17
3.125e-05
-3.12396e-17
3.125e-05
-5.53138e-17
3.125e-05
-9.39129e-17
3.125e-05
-1.54264e-16
-1.59329e-16
3.375e-05
1.3328e-16
3.375e-05
1.60766e-16
3.375e-05
1.16636e-16
3.375e-05
7.64137e-17
3.375e-05
4.71899e-17
3.375e-05
2.80276e-17
3.375e-05
1.66651e-17
3.375e-05
1.01817e-17
3.375e-05
6.41855e-18
3.375e-05
3.96906e-18
3.375e-05
1.97139e-18
3.375e-05
-2.43093e-19
3.375e-05
-3.31447e-18
3.375e-05
-8.1717e-18
3.375e-05
-1.6333e-17
3.375e-05
-3.0595e-17
3.375e-05
-5.49745e-17
3.375e-05
-9.46858e-17
3.375e-05
-1.59848e-16
-1.66386e-16
3.625e-05
1.61257e-16
3.625e-05
1.89769e-16
3.625e-05
1.33837e-16
3.625e-05
8.58598e-17
3.625e-05
5.2481e-17
3.625e-05
3.08665e-17
3.625e-05
1.80991e-17
3.625e-05
1.08195e-17
3.625e-05
6.62164e-18
3.625e-05
3.97924e-18
3.625e-05
1.97361e-18
3.625e-05
-8.20612e-20
3.625e-05
-2.82978e-18
3.625e-05
-7.11701e-18
3.625e-05
-1.43874e-17
3.625e-05
-2.72082e-17
3.625e-05
-4.96727e-17
3.625e-05
-8.70209e-17
3.625e-05
-1.52261e-16
-1.60646e-16
3.875e-05
1.66513e-16
3.875e-05
1.91137e-16
3.875e-05
1.28539e-16
3.875e-05
7.98452e-17
3.875e-05
4.78937e-17
3.875e-05
2.77118e-17
3.875e-05
1.60029e-17
3.875e-05
9.41832e-18
3.875e-05
5.65915e-18
3.875e-05
3.35344e-18
3.875e-05
1.66258e-18
3.875e-05
-5.92954e-21
3.875e-05
-2.17534e-18
3.875e-05
-5.53666e-18
3.875e-05
-1.12827e-17
3.875e-05
-2.15703e-17
3.875e-05
-4.01237e-17
3.875e-05
-7.17064e-17
3.875e-05
-1.31675e-16
-1.42002e-16
4.125e-05
1.47168e-16
4.125e-05
1.63261e-16
4.125e-05
1.01998e-16
4.125e-05
6.05996e-17
4.125e-05
3.54892e-17
4.125e-05
2.00701e-17
4.125e-05
1.13997e-17
4.125e-05
6.6154e-18
4.125e-05
3.94623e-18
4.125e-05
2.31835e-18
4.125e-05
1.14615e-18
4.125e-05
1.29892e-20
4.125e-05
-1.42162e-18
4.125e-05
-3.67729e-18
4.125e-05
-7.55479e-18
4.125e-05
-1.46143e-17
4.125e-05
-2.77776e-17
4.125e-05
-5.07293e-17
4.125e-05
-9.97981e-17
-1.1164e-16
4.375e-05
1.0531e-16
4.375e-05
1.10219e-16
4.375e-05
6.08864e-17
4.375e-05
3.41904e-17
4.375e-05
1.95042e-17
4.375e-05
1.07104e-17
4.375e-05
5.95067e-18
4.375e-05
3.42146e-18
4.375e-05
2.03525e-18
4.375e-05
1.20004e-18
4.375e-05
5.94538e-19
4.375e-05
2.10627e-20
4.375e-05
-7.22847e-19
4.375e-05
-1.89718e-18
4.375e-05
-3.90154e-18
4.375e-05
-7.62333e-18
4.375e-05
-1.4922e-17
4.375e-05
-2.76918e-17
4.375e-05
-6.07206e-17
-7.26605e-17
4.625e-05
4.65354e-17
4.625e-05
4.462e-17
4.625e-05
1.9891e-17
4.625e-05
1.02514e-17
4.625e-05
5.74346e-18
4.625e-05
3.00329e-18
4.625e-05
1.6252e-18
4.625e-05
9.25351e-19
4.625e-05
5.48238e-19
4.625e-05
3.2776e-19
4.625e-05
1.78686e-19
4.625e-05
1.59255e-20
4.625e-05
-2.05492e-19
4.625e-05
-5.43112e-19
4.625e-05
-1.11416e-18
4.625e-05
-2.21961e-18
4.625e-05
-4.51638e-18
4.625e-05
-8.3597e-18
4.625e-05
-2.22038e-17
-3.00784e-17
4.875e-05
4.875e-05
4.875e-05
4.875e-05
4.875e-05
4.875e-05
4.875e-05
4.875e-05
4.875e-05
4.875e-05
4.875e-05
4.875e-05
4.875e-05
4.875e-05
4.875e-05
4.875e-05
4.875e-05
4.875e-05
4.875e-05
)
;

boundaryField
{
    top
    {
        type            calculated;
        value           uniform 0;
    }
    bottom
    {
        type            calculated;
        value           uniform 0;
    }
    inlet
    {
        type            calculated;
        value           nonuniform List<scalar> 
20
(
-1.25e-06
-3.75e-06
-6.25e-06
-8.75e-06
-1.125e-05
-1.375e-05
-1.625e-05
-1.875e-05
-2.125e-05
-2.375e-05
-2.625e-05
-2.875e-05
-3.125e-05
-3.375e-05
-3.625e-05
-3.875e-05
-4.125e-05
-4.375e-05
-4.625e-05
-4.875e-05
)
;
    }
    outlet
    {
        type            calculated;
        value           nonuniform List<scalar> 
20
(
1.25e-06
3.75e-06
6.25e-06
8.75e-06
1.125e-05
1.375e-05
1.625e-05
1.875e-05
2.125e-05
2.375e-05
2.625e-05
2.875e-05
3.125e-05
3.375e-05
3.625e-05
3.875e-05
4.125e-05
4.375e-05
4.625e-05
4.875e-05
)
;
    }
    frontAndBack
    {
        type            empty;
        value           nonuniform List<scalar> 0();
    }
}


// ************************************************************************* //
