/*--------------------------------*- C++ -*----------------------------------*\
  =========                 |
  \\      /  F ield         | OpenFOAM: The Open Source CFD Toolbox
   \\    /   O peration     | Website:  https://openfoam.org
    \\  /    A nd           | Version:  9
     \\/     M anipulation  |
\*---------------------------------------------------------------------------*/
FoamFile
{
    format      ascii;
    class       volVectorField;
    location    "4.7";
    object      U;
}
// * * * * * * * * * * * * * * * * * * * * * * * * * * * * * * * * * * * * * //

dimensions      [0 1 -1 0 0 0 0];

internalField   nonuniform List<vector> 
400
(
(0.025 -2.7285e-13 0)
(0.025 -2.18569e-13 0)
(0.025 -9.21968e-14 0)
(0.025 -4.91684e-14 0)
(0.025 -2.7122e-14 0)
(0.025 -1.43729e-14 0)
(0.025 -7.74346e-15 0)
(0.025 -3.87277e-15 0)
(0.025 -1.74478e-15 0)
(0.025 -7.43074e-16 0)
(0.025 -2.69392e-16 0)
(0.025 4.00314e-17 0)
(0.025 3.58289e-16 0)
(0.025 8.98695e-16 0)
(0.025 2.15756e-15 0)
(0.025 5.73637e-15 0)
(0.025 1.43306e-14 0)
(0.025 3.41386e-14 0)
(0.025 1.19814e-13 0)
(0.025 1.40348e-13 0)
(0.075 -9.38776e-13 0)
(0.075 -8.34929e-13 0)
(0.075 -4.36196e-13 0)
(0.075 -2.50407e-13 0)
(0.075 -1.44606e-13 0)
(0.075 -8.03856e-14 0)
(0.075 -4.41859e-14 0)
(0.075 -2.33635e-14 0)
(0.075 -1.15828e-14 0)
(0.075 -5.25519e-15 0)
(0.075 -1.87799e-15 0)
(0.075 1.76589e-16 0)
(0.075 2.01315e-15 0)
(0.075 5.01242e-15 0)
(0.075 1.17713e-14 0)
(0.075 2.88264e-14 0)
(0.075 6.78173e-14 0)
(0.075 1.50895e-13 0)
(0.075 4.0948e-13 0)
(0.075 4.49388e-13 0)
(0.125 -1.7067e-12 0)
(0.125 -1.65747e-12 0)
(0.125 -1.00113e-12 0)
(0.125 -6.05758e-13 0)
(0.125 -3.61323e-13 0)
(0.125 -2.07756e-13 0)
(0.125 -1.16817e-13 0)
(0.125 -6.32992e-14 0)
(0.125 -3.2474e-14 0)
(0.125 -1.52944e-14 0)
(0.125 -5.80174e-15 0)
(0.125 -5.81469e-17 0)
(0.125 4.85455e-15 0)
(0.125 1.24682e-14 0)
(0.125 2.89442e-14 0)
(0.125 6.76938e-14 0)
(0.125 1.52561e-13 0)
(0.125 3.21907e-13 0)
(0.125 7.24261e-13 0)
(0.125 7.44909e-13 0)
(0.175 -2.3483e-12 0)
(0.175 -2.40168e-12 0)
(0.175 -1.58366e-12 0)
(0.175 -9.97552e-13 0)
(0.175 -6.111e-13 0)
(0.175 -3.59284e-13 0)
(0.175 -2.05101e-13 0)
(0.175 -1.12819e-13 0)
(0.175 -5.88762e-14 0)
(0.175 -2.82325e-14 0)
(0.175 -1.11215e-14 0)
(0.175 -9.56572e-16 0)
(0.175 7.30433e-15 0)
(0.175 1.94489e-14 0)
(0.175 4.50606e-14 0)
(0.175 1.03097e-13 0)
(0.175 2.26157e-13 0)
(0.175 4.59117e-13 0)
(0.175 9.27295e-13 0)
(0.175 9.14919e-13 0)
(0.225 -2.76913e-12 0)
(0.225 -2.9181e-12 0)
(0.225 -2.04039e-12 0)
(0.225 -1.32912e-12 0)
(0.225 -8.33418e-13 0)
(0.225 -4.99365e-13 0)
(0.225 -2.88921e-13 0)
(0.225 -1.60664e-13 0)
(0.225 -8.47179e-14 0)
(0.225 -4.11482e-14 0)
(0.225 -1.67955e-14 0)
(0.225 -2.7172e-15 0)
(0.225 7.92649e-15 0)
(0.225 2.25769e-14 0)
(0.225 5.28353e-14 0)
(0.225 1.20068e-13 0)
(0.225 2.59661e-13 0)
(0.225 5.11835e-13 0)
(0.225 9.7038e-13 0)
(0.225 9.31887e-13 0)
(0.275 -2.942e-12 0)
(0.275 -3.15498e-12 0)
(0.275 -2.30074e-12 0)
(0.275 -1.54029e-12 0)
(0.275 -9.85414e-13 0)
(0.275 -5.9989e-13 0)
(0.275 -3.50958e-13 0)
(0.275 -1.9669e-13 0)
(0.275 -1.04357e-13 0)
(0.275 -5.10852e-14 0)
(0.275 -2.14742e-14 0)
(0.275 -5.1128e-15 0)
(0.275 5.94273e-15 0)
(0.275 1.96638e-14 0)
(0.275 4.78255e-14 0)
(0.275 1.10735e-13 0)
(0.275 2.40886e-13 0)
(0.275 4.67548e-13 0)
(0.275 8.56092e-13 0)
(0.275 8.03775e-13 0)
(0.325 -2.87121e-12 0)
(0.325 -3.10868e-12 0)
(0.325 -2.33817e-12 0)
(0.325 -1.59995e-12 0)
(0.325 -1.04102e-12 0)
(0.325 -6.42131e-13 0)
(0.325 -3.78967e-13 0)
(0.325 -2.13384e-13 0)
(0.325 -1.13393e-13 0)
(0.325 -5.56091e-14 0)
(0.325 -2.39658e-14 0)
(0.325 -7.67373e-15 0)
(0.325 1.24732e-15 0)
(0.325 1.01141e-14 0)
(0.325 2.90048e-14 0)
(0.325 7.40516e-14 0)
(0.325 1.70906e-13 0)
(0.325 3.35263e-13 0)
(0.325 6.11134e-13 0)
(0.325 5.55599e-13 0)
(0.375 -2.57775e-12 0)
(0.375 -2.80026e-12 0)
(0.375 -2.15571e-12 0)
(0.375 -1.50063e-12 0)
(0.375 -9.90352e-13 0)
(0.375 -6.17515e-13 0)
(0.375 -3.66684e-13 0)
(0.375 -2.06655e-13 0)
(0.375 -1.09304e-13 0)
(0.375 -5.321e-14 0)
(0.375 -2.33958e-14 0)
(0.375 -9.85367e-15 0)
(0.375 -5.65252e-15 0)
(0.375 -5.20081e-15 0)
(0.375 -1.80524e-15 0)
(0.375 1.42773e-14 0)
(0.375 5.93331e-14 0)
(0.375 1.35464e-13 0)
(0.375 2.70544e-13 0)
(0.375 2.18553e-13 0)
(0.425 -2.09876e-12 0)
(0.425 -2.27132e-12 0)
(0.425 -1.78022e-12 0)
(0.425 -1.25627e-12 0)
(0.425 -8.39499e-13 0)
(0.425 -5.28267e-13 0)
(0.425 -3.14707e-13 0)
(0.425 -1.76516e-13 0)
(0.425 -9.19256e-14 0)
(0.425 -4.36995e-14 0)
(0.425 -1.94823e-14 0)
(0.425 -1.11499e-14 0)
(0.425 -1.37778e-14 0)
(0.425 -2.43285e-14 0)
(0.425 -4.05801e-14 0)
(0.425 -6.05287e-14 0)
(0.425 -7.86032e-14 0)
(0.425 -1.05124e-13 0)
(0.425 -1.25558e-13 0)
(0.425 -1.7109e-13 0)
(0.475 -1.4832e-12 0)
(0.475 -1.57868e-12 0)
(0.475 -1.25749e-12 0)
(0.475 -8.98557e-13 0)
(0.475 -6.08721e-13 0)
(0.475 -3.86569e-13 0)
(0.475 -2.30195e-13 0)
(0.475 -1.27054e-13 0)
(0.475 -6.3601e-14 0)
(0.475 -2.82551e-14 0)
(0.475 -1.25667e-14 0)
(0.475 -1.1265e-14 0)
(0.475 -2.19533e-14 0)
(0.475 -4.45895e-14 0)
(0.475 -8.19458e-14 0)
(0.475 -1.40211e-13 0)
(0.475 -2.24893e-13 0)
(0.475 -3.57238e-13 0)
(0.475 -5.36121e-13 0)
(0.475 -5.75713e-13 0)
(0.525 -7.88619e-13 0)
(0.525 -7.90124e-13 0)
(0.525 -6.46803e-13 0)
(0.525 -4.72507e-13 0)
(0.525 -3.29149e-13 0)
(0.525 -2.12558e-13 0)
(0.525 -1.25607e-13 0)
(0.525 -6.5779e-14 0)
(0.525 -2.8663e-14 0)
(0.525 -9.23834e-15 0)
(0.525 -3.71884e-15 0)
(0.525 -1.01849e-14 0)
(0.525 -2.89204e-14 0)
(0.525 -6.3098e-14 0)
(0.525 -1.20214e-13 0)
(0.525 -2.14134e-13 0)
(0.525 -3.61253e-13 0)
(0.525 -5.92245e-13 0)
(0.525 -9.21671e-13 0)
(0.525 -9.58363e-13 0)
(0.575 -7.74883e-14 0)
(0.575 1.98068e-14 0)
(0.575 -1.60212e-14 0)
(0.575 -3.13234e-14 0)
(0.575 -3.8723e-14 0)
(0.575 -3.14288e-14 0)
(0.575 -1.67459e-14 0)
(0.575 -2.27623e-15 0)
(0.575 7.33343e-15 0)
(0.575 1.0192e-14 0)
(0.575 5.5066e-15 0)
(0.575 -8.14179e-15 0)
(0.575 -3.37377e-14 0)
(0.575 -7.72489e-14 0)
(0.575 -1.50072e-13 0)
(0.575 -2.72648e-13 0)
(0.575 -4.71172e-13 0)
(0.575 -7.84476e-13 0)
(0.575 -1.24663e-12 0)
(0.575 -1.28511e-12 0)
(0.625 5.85835e-13 0)
(0.625 7.73591e-13 0)
(0.625 5.63712e-13 0)
(0.625 3.69071e-13 0)
(0.625 2.22731e-13 0)
(0.625 1.30426e-13 0)
(0.625 7.98583e-14 0)
(0.625 5.3489e-14 0)
(0.625 3.84406e-14 0)
(0.625 2.67757e-14 0)
(0.625 1.34841e-14 0)
(0.625 -5.68267e-15 0)
(0.625 -3.58544e-14 0)
(0.625 -8.49805e-14 0)
(0.625 -1.67329e-13 0)
(0.625 -3.08153e-13 0)
(0.625 -5.41485e-13 0)
(0.625 -9.13052e-13 0)
(0.625 -1.4807e-12 0)
(0.625 -1.52644e-12 0)
(0.675 1.13921e-12 0)
(0.675 1.395e-12 0)
(0.675 1.02373e-12 0)
(0.675 6.76477e-13 0)
(0.675 4.19036e-13 0)
(0.675 2.49708e-13 0)
(0.675 1.49694e-13 0)
(0.675 9.29071e-14 0)
(0.675 5.97991e-14 0)
(0.675 3.77869e-14 0)
(0.675 1.88008e-14 0)
(0.675 -3.32973e-15 0)
(0.675 -3.49586e-14 0)
(0.675 -8.52105e-14 0)
(0.675 -1.69618e-13 0)
(0.675 -3.15987e-13 0)
(0.675 -5.63585e-13 0)
(0.675 -9.6328e-13 0)
(0.675 -1.60064e-12 0)
(0.675 -1.65908e-12 0)
(0.725 1.52556e-12 0)
(0.725 1.81379e-12 0)
(0.725 1.30509e-12 0)
(0.725 8.49483e-13 0)
(0.725 5.23575e-13 0)
(0.725 3.10226e-13 0)
(0.725 1.83321e-13 0)
(0.725 1.10602e-13 0)
(0.725 6.8432e-14 0)
(0.725 4.15465e-14 0)
(0.725 2.06273e-14 0)
(0.725 -1.41267e-15 0)
(0.725 -3.12214e-14 0)
(0.725 -7.79169e-14 0)
(0.725 -1.56721e-13 0)
(0.725 -2.95062e-13 0)
(0.725 -5.34411e-13 0)
(0.725 -9.28121e-13 0)
(0.725 -1.59147e-12 0)
(0.725 -1.66728e-12 0)
(0.775 1.69901e-12 0)
(0.775 1.97266e-12 0)
(0.775 1.36657e-12 0)
(0.775 8.6541e-13 0)
(0.775 5.24923e-13 0)
(0.775 3.06675e-13 0)
(0.775 1.78536e-13 0)
(0.775 1.05784e-13 0)
(0.775 6.40024e-14 0)
(0.775 3.8083e-14 0)
(0.775 1.88868e-14 0)
(0.775 -2.39692e-16 0)
(0.775 -2.52939e-14 0)
(0.775 -6.42027e-14 0)
(0.775 -1.30426e-13 0)
(0.775 -2.48151e-13 0)
(0.775 -4.57378e-13 0)
(0.775 -8.09607e-13 0)
(0.775 -1.44798e-12 0)
(0.775 -1.54412e-12 0)
(0.825 1.62483e-12 0)
(0.825 1.83261e-12 0)
(0.825 1.19551e-12 0)
(0.825 7.27786e-13 0)
(0.825 4.31489e-13 0)
(0.825 2.46965e-13 0)
(0.825 1.41396e-13 0)
(0.825 8.2536e-14 0)
(0.825 4.92976e-14 0)
(0.825 2.90365e-14 0)
(0.825 1.43772e-14 0)
(0.825 1.82828e-16 0)
(0.825 -1.79565e-14 0)
(0.825 -4.61883e-14 0)
(0.825 -9.46519e-14 0)
(0.825 -1.82187e-13 0)
(0.825 -3.42769e-13 0)
(0.825 -6.1999e-13 0)
(0.825 -1.17603e-12 0)
(0.825 -1.29186e-12 0)
(0.875 1.2977e-12 0)
(0.875 1.39992e-12 0)
(0.875 8.28481e-13 0)
(0.875 4.78128e-13 0)
(0.875 2.75802e-13 0)
(0.875 1.53621e-13 0)
(0.875 8.62419e-14 0)
(0.875 4.97148e-14 0)
(0.875 2.95315e-14 0)
(0.875 1.73177e-14 0)
(0.875 8.5619e-15 0)
(0.875 2.02018e-16 0)
(0.875 -1.04357e-14 0)
(0.875 -2.71774e-14 0)
(0.875 -5.58797e-14 0)
(0.875 -1.08719e-13 0)
(0.875 -2.09816e-13 0)
(0.875 -3.87509e-13 0)
(0.875 -8.03134e-13 0)
(0.875 -9.28347e-13 0)
(0.925 7.7065e-13 0)
(0.925 7.76238e-13 0)
(0.925 3.89942e-13 0)
(0.925 2.07154e-13 0)
(0.925 1.15677e-13 0)
(0.925 6.17596e-14 0)
(0.925 3.36652e-14 0)
(0.925 1.91949e-14 0)
(0.925 1.13998e-14 0)
(0.925 6.76409e-15 0)
(0.925 3.45136e-15 0)
(0.925 1.84815e-16 0)
(0.925 -4.12315e-15 0)
(0.925 -1.09038e-14 0)
(0.925 -2.24919e-14 0)
(0.925 -4.44778e-14 0)
(0.925 -8.90243e-14 0)
(0.925 -1.66988e-13 0)
(0.925 -4.0148e-13 0)
(0.925 -5.0638e-13 0)
(0.975 2.38226e-13 0)
(0.975 2.22894e-13 0)
(0.975 8.92429e-14 0)
(0.975 4.16377e-14 0)
(0.975 2.2341e-14 0)
(0.975 1.10803e-14 0)
(0.975 5.7934e-15 0)
(0.975 3.26363e-15 0)
(0.975 1.93125e-15 0)
(0.975 1.1533e-15 0)
(0.975 6.27238e-16 0)
(0.975 1.08864e-17 0)
(0.975 -8.74186e-16 0)
(0.975 -2.24354e-15 0)
(0.975 -4.47087e-15 0)
(0.975 -8.86986e-15 0)
(0.975 -1.86677e-14 0)
(0.975 -3.51167e-14 0)
(0.975 -1.04727e-13 0)
(0.975 -1.46211e-13 0)
)
;

boundaryField
{
    top
    {
        type            fixedValue;
        value           uniform (1 0 0);
    }
    bottom
    {
        type            fixedValue;
        value           uniform (0 0 0);
    }
    inlet
    {
        type            zeroGradient;
    }
    outlet
    {
        type            zeroGradient;
    }
    frontAndBack
    {
        type            empty;
    }
}


// ************************************************************************* //
