/*--------------------------------*- C++ -*----------------------------------*\
  =========                 |
  \\      /  F ield         | OpenFOAM: The Open Source CFD Toolbox
   \\    /   O peration     | Website:  https://openfoam.org
    \\  /    A nd           | Version:  9
     \\/     M anipulation  |
\*---------------------------------------------------------------------------*/
FoamFile
{
    format      ascii;
    class       volScalarField;
    location    "1.7";
    object      p;
}
// * * * * * * * * * * * * * * * * * * * * * * * * * * * * * * * * * * * * * //

dimensions      [0 2 -2 0 0 0 0];

internalField   nonuniform List<scalar> 
400
(
8.35313e-08
1.38437e-07
1.33865e-07
1.2733e-07
1.16601e-07
1.03893e-07
9.06555e-08
7.71874e-08
6.37134e-08
5.03469e-08
3.70272e-08
2.36688e-08
1.02411e-08
-3.2502e-09
-1.67911e-08
-3.04074e-08
-4.37492e-08
-5.58562e-08
-7.11439e-08
-4.49461e-08
7.9219e-08
1.31889e-07
1.2691e-07
1.23162e-07
1.14072e-07
1.02368e-07
8.97727e-08
7.66937e-08
6.34484e-08
5.02142e-08
3.69709e-08
2.36616e-08
1.0279e-08
-3.14411e-09
-1.65435e-08
-2.98734e-08
-4.26168e-08
-5.32584e-08
-6.94487e-08
-4.37937e-08
8.0096e-08
1.32466e-07
1.23028e-07
1.20484e-07
1.12272e-07
1.01179e-07
8.90393e-08
7.62592e-08
6.31975e-08
5.00721e-08
3.68951e-08
2.36322e-08
1.0292e-08
-3.07505e-09
-1.63741e-08
-2.9542e-08
-4.20433e-08
-5.20027e-08
-7.16852e-08
-4.54054e-08
8.31714e-08
1.3824e-07
1.22211e-07
1.19354e-07
1.11299e-07
1.00407e-07
8.85075e-08
7.59109e-08
6.29716e-08
4.99243e-08
3.68001e-08
2.35775e-08
1.02721e-08
-3.05932e-09
-1.6314e-08
-2.94588e-08
-4.2047e-08
-5.20942e-08
-7.62084e-08
-4.7899e-08
8.65397e-08
1.46239e-07
1.22979e-07
1.19096e-07
1.10823e-07
9.9896e-08
8.81014e-08
7.56119e-08
6.27546e-08
4.97672e-08
3.66889e-08
2.35021e-08
1.02234e-08
-3.08988e-09
-1.63412e-08
-2.95468e-08
-4.23971e-08
-5.28352e-08
-8.12675e-08
-5.02686e-08
8.96496e-08
1.54883e-07
1.24535e-07
1.19312e-07
1.10644e-07
9.9542e-08
8.77664e-08
7.53374e-08
6.25392e-08
4.96019e-08
3.65649e-08
2.341e-08
1.01513e-08
-3.15624e-09
-1.64285e-08
-2.97353e-08
-4.29124e-08
-5.38038e-08
-8.59077e-08
-5.21966e-08
9.2393e-08
1.63295e-07
1.2642e-07
1.19756e-07
1.10625e-07
9.92756e-08
8.74673e-08
7.50729e-08
6.23225e-08
4.94304e-08
3.64323e-08
2.33062e-08
1.00628e-08
-3.24579e-09
-1.65487e-08
-2.99618e-08
-4.34618e-08
-5.47439e-08
-8.96431e-08
-5.36273e-08
9.46611e-08
1.7076e-07
1.28267e-07
1.20215e-07
1.1064e-07
9.90329e-08
8.71736e-08
7.48054e-08
6.21013e-08
4.92546e-08
3.62948e-08
2.31966e-08
9.96681e-09
-3.3429e-09
-1.66714e-08
-3.01661e-08
-4.3926e-08
-5.54635e-08
-9.21355e-08
-5.45071e-08
9.63857e-08
1.76719e-07
1.29775e-07
1.20522e-07
1.10591e-07
9.87663e-08
8.68644e-08
7.45278e-08
6.18751e-08
4.9077e-08
3.61572e-08
2.30877e-08
9.8736e-09
-3.43057e-09
-1.6767e-08
-3.02944e-08
-4.42092e-08
-5.58216e-08
-9.31938e-08
-5.48215e-08
9.75153e-08
1.80763e-07
1.30739e-07
1.20571e-07
1.10421e-07
9.84523e-08
8.65339e-08
7.42413e-08
6.16474e-08
4.89021e-08
3.60245e-08
2.29862e-08
9.793e-09
-3.49359e-09
-1.6811e-08
-3.03074e-08
-4.42453e-08
-5.57368e-08
-9.27468e-08
-5.45744e-08
9.80133e-08
1.82627e-07
1.31045e-07
1.2032e-07
1.10113e-07
9.80938e-08
8.61919e-08
7.3956e-08
6.14268e-08
4.87367e-08
3.59023e-08
2.2898e-08
9.73268e-09
-3.52106e-09
-1.67877e-08
-3.01838e-08
-4.40031e-08
-5.51835e-08
-9.08294e-08
-5.37895e-08
9.78467e-08
1.82181e-07
1.30667e-07
1.1979e-07
1.09692e-07
9.77173e-08
8.58619e-08
7.36901e-08
6.12255e-08
4.85885e-08
3.57961e-08
2.28274e-08
9.69695e-09
-3.50848e-09
-1.66931e-08
-2.99231e-08
-4.3487e-08
-5.41884e-08
-8.75661e-08
-5.25037e-08
9.69855e-08
1.79439e-07
1.29675e-07
1.19058e-07
1.09218e-07
9.73679e-08
8.55774e-08
7.34663e-08
6.10582e-08
4.84664e-08
3.57106e-08
2.27766e-08
9.68591e-09
-3.45886e-09
-1.65363e-08
-2.95471e-08
-4.27381e-08
-5.28275e-08
-8.31628e-08
-5.07677e-08
9.54198e-08
1.7458e-07
1.28235e-07
1.18259e-07
1.08779e-07
9.71041e-08
8.53762e-08
7.33088e-08
6.09391e-08
4.8378e-08
3.56491e-08
2.27454e-08
9.69526e-09
-3.38296e-09
-1.63394e-08
-2.90996e-08
-4.18334e-08
-5.12261e-08
-7.79063e-08
-4.86512e-08
9.31542e-08
1.67972e-07
1.26621e-07
1.17571e-07
1.08483e-07
9.69874e-08
8.52946e-08
7.32383e-08
6.08797e-08
4.83289e-08
3.56131e-08
2.2731e-08
9.71679e-09
-3.29826e-09
-1.61363e-08
-2.86441e-08
-4.0883e-08
-4.95562e-08
-7.21629e-08
-4.62453e-08
9.02523e-08
1.60209e-07
1.25194e-07
1.17206e-07
1.08441e-07
9.70737e-08
8.53586e-08
7.32674e-08
6.08858e-08
4.83212e-08
3.56015e-08
2.27288e-08
9.73942e-09
-3.22665e-09
-1.5968e-08
-2.82568e-08
-4.0022e-08
-4.8027e-08
-6.63784e-08
-4.3669e-08
8.67626e-08
1.5211e-07
1.2442e-07
1.17375e-07
1.08756e-07
9.74003e-08
8.55802e-08
7.33977e-08
6.09559e-08
4.83523e-08
3.56111e-08
2.27325e-08
9.75071e-09
-3.19205e-09
-1.58784e-08
-2.8021e-08
-3.94038e-08
-4.68913e-08
-6.10771e-08
-4.10505e-08
8.31934e-08
1.45273e-07
1.25084e-07
1.18412e-07
1.09558e-07
9.80164e-08
8.59712e-08
7.36299e-08
6.10876e-08
4.84196e-08
3.5638e-08
2.27348e-08
9.73579e-09
-3.22311e-09
-1.59198e-08
-2.8038e-08
-3.92373e-08
-4.65547e-08
-5.71284e-08
-3.87406e-08
8.11703e-08
1.42695e-07
1.28641e-07
1.2087e-07
1.11079e-07
9.90039e-08
8.65595e-08
7.3972e-08
6.12841e-08
4.85251e-08
3.56828e-08
2.27324e-08
9.68397e-09
-3.34422e-09
-1.6146e-08
-2.8428e-08
-3.97995e-08
-4.76671e-08
-5.6067e-08
-3.78262e-08
8.36844e-08
1.47009e-07
1.35106e-07
1.24663e-07
1.13209e-07
1.00263e-07
8.72772e-08
7.43824e-08
6.15205e-08
4.86553e-08
3.57393e-08
2.27252e-08
9.60246e-09
-3.53735e-09
-1.65258e-08
-2.91408e-08
-4.10619e-08
-5.02067e-08
-5.88323e-08
-3.9933e-08
)
;

boundaryField
{
    top
    {
        type            zeroGradient;
    }
    bottom
    {
        type            zeroGradient;
    }
    inlet
    {
        type            fixedValue;
        value           uniform 0;
    }
    outlet
    {
        type            fixedValue;
        value           uniform 0;
    }
    frontAndBack
    {
        type            empty;
    }
}


// ************************************************************************* //
