/*--------------------------------*- C++ -*----------------------------------*\
  =========                 |
  \\      /  F ield         | OpenFOAM: The Open Source CFD Toolbox
   \\    /   O peration     | Website:  https://openfoam.org
    \\  /    A nd           | Version:  9
     \\/     M anipulation  |
\*---------------------------------------------------------------------------*/
FoamFile
{
    format      ascii;
    class       surfaceScalarField;
    location    "1.7";
    object      phi;
}
// * * * * * * * * * * * * * * * * * * * * * * * * * * * * * * * * * * * * * //

dimensions      [0 3 -1 0 0 0 0];

internalField   nonuniform List<scalar> 
760
(
1.24991e-06
-5.11601e-13
1.24991e-06
-4.25748e-13
1.24991e-06
-2.02809e-13
1.24991e-06
-1.15317e-13
1.24991e-06
-6.61942e-14
1.24991e-06
-3.63794e-14
1.24991e-06
-1.99367e-14
1.24991e-06
-1.04403e-14
1.24991e-06
-5.09709e-15
1.24991e-06
-2.32099e-15
1.24991e-06
-8.71293e-16
1.24991e-06
1.95249e-17
1.24991e-06
8.39205e-16
1.24991e-06
2.1684e-15
1.24991e-06
5.13847e-15
1.24991e-06
1.29745e-14
1.24991e-06
3.09395e-14
1.24991e-06
6.92043e-14
1.24991e-06
2.17917e-13
2.51551e-13
3.74974e-06
-1.23157e-12
3.74974e-06
-1.15408e-12
3.74974e-06
-6.59841e-13
3.74974e-06
-3.92704e-13
3.74974e-06
-2.31745e-13
3.74974e-06
-1.31864e-13
3.74974e-06
-7.36573e-14
3.74974e-06
-3.96586e-14
3.74974e-06
-2.01793e-14
3.74974e-06
-9.4177e-15
3.74974e-06
-3.51124e-15
3.74974e-06
4.38704e-17
3.74974e-06
3.13138e-15
3.74974e-06
7.97694e-15
3.74974e-06
1.85654e-14
3.74974e-06
4.40934e-14
3.74974e-06
1.01058e-13
3.74974e-06
2.16996e-13
3.74974e-06
5.28845e-13
5.58895e-13
6.24957e-06
-1.87316e-12
6.24957e-06
-1.87927e-12
6.24957e-06
-1.1946e-12
6.24957e-06
-7.39755e-13
6.24957e-06
-4.48269e-13
6.24957e-06
-2.61248e-13
6.24957e-06
-1.48265e-13
6.24957e-06
-8.10968e-14
6.24957e-06
-4.20546e-14
6.24957e-06
-2.001e-14
6.24957e-06
-7.72995e-15
6.24957e-06
-4.24984e-16
6.24957e-06
5.639e-15
6.24957e-06
1.47564e-14
6.24957e-06
3.41718e-14
6.24957e-06
7.88794e-14
6.24957e-06
1.75143e-13
6.24957e-06
3.62275e-13
6.24957e-06
7.67359e-13
7.6793e-13
8.74941e-06
-2.35357e-12
8.74941e-06
-2.45133e-12
8.74941e-06
-1.66853e-12
8.74941e-06
-1.07062e-12
8.74941e-06
-6.64437e-13
8.74941e-06
-3.94924e-13
8.74941e-06
-2.27212e-13
8.74941e-06
-1.2576e-13
8.74941e-06
-6.60072e-14
8.74941e-06
-3.18582e-14
8.74941e-06
-1.27599e-14
8.74941e-06
-1.62655e-15
8.74941e-06
7.07237e-15
8.74941e-06
1.94334e-14
8.74941e-06
4.51989e-14
8.74941e-06
1.02934e-13
8.74941e-06
2.24121e-13
8.74941e-06
4.48154e-13
8.74941e-06
8.76427e-13
8.49999e-13
1.12493e-05
-2.62374e-12
1.12493e-05
-2.79375e-12
1.12493e-05
-1.99614e-12
1.12493e-05
-1.31911e-12
1.12493e-05
-8.36032e-13
1.12493e-05
-5.05252e-13
1.12493e-05
-2.941e-13
1.12493e-05
-1.64226e-13
1.12493e-05
-8.68575e-14
1.12493e-05
-4.23224e-14
1.12493e-05
-1.75012e-14
1.12493e-05
-3.51235e-15
1.12493e-05
6.46443e-15
1.12493e-05
1.9554e-14
1.12493e-05
4.64879e-14
1.12493e-05
1.0642e-13
1.12493e-05
2.30663e-13
1.12493e-05
4.51196e-13
1.12493e-05
8.41358e-13
7.97493e-13
1.37491e-05
-2.67062e-12
1.37491e-05
-2.88048e-12
1.37491e-05
-2.13248e-12
1.37491e-05
-1.44335e-12
1.37491e-05
-9.31313e-13
1.37491e-05
-5.708e-13
1.37491e-05
-3.35422e-13
1.37491e-05
-1.88423e-13
1.37491e-05
-9.99992e-14
1.37491e-05
-4.89311e-14
1.37491e-05
-2.0787e-14
1.37491e-05
-5.77551e-15
1.37491e-05
3.40607e-15
1.37491e-05
1.38581e-14
1.37491e-05
3.55784e-14
1.37491e-05
8.52901e-14
1.37491e-05
1.89858e-13
1.37491e-05
3.69777e-13
1.37491e-05
6.75597e-13
6.24636e-13
1.6249e-05
-2.50309e-12
1.6249e-05
-2.71675e-12
1.6249e-05
-2.06553e-12
1.6249e-05
-1.4249e-12
1.6249e-05
-9.33457e-13
1.6249e-05
-5.78819e-13
1.6249e-05
-3.42575e-13
1.6249e-05
-1.9295e-13
1.6249e-05
-1.02231e-13
1.6249e-05
-4.98773e-14
1.6249e-05
-2.16558e-14
1.6249e-05
-7.95122e-15
1.6249e-05
-1.91599e-15
1.6249e-05
2.44313e-15
1.6249e-05
1.27864e-14
1.6249e-05
4.09842e-14
1.6249e-05
1.06357e-13
1.6249e-05
2.16988e-13
1.6249e-05
4.05909e-13
3.5562e-13
1.8749e-05
-2.14821e-12
1.8749e-05
-2.3314e-12
1.8749e-05
-1.8088e-12
1.8749e-05
-1.26674e-12
1.8749e-05
-8.40713e-13
1.8749e-05
-5.26381e-13
1.8749e-05
-3.12948e-13
1.8749e-05
-1.75933e-13
1.8749e-05
-9.23346e-14
1.8749e-05
-4.43933e-14
1.8749e-05
-1.95822e-14
1.8749e-05
-9.5564e-15
1.8749e-05
-8.81494e-15
1.8749e-05
-1.3399e-14
1.8749e-05
-1.91995e-14
1.8749e-05
-2.08608e-14
1.8749e-05
-8.39447e-15
1.8749e-05
1.43938e-14
1.8749e-05
6.69287e-14
2.17444e-14
2.12489e-05
-1.64541e-12
2.12489e-05
-1.76962e-12
2.12489e-05
-1.39579e-12
2.12489e-05
-9.89881e-13
2.12489e-05
-6.65237e-13
2.12489e-05
-4.20135e-13
2.12489e-05
-2.50108e-13
2.12489e-05
-1.39275e-13
2.12489e-05
-7.13038e-14
2.12489e-05
-3.29317e-14
2.12489e-05
-1.46227e-14
2.12489e-05
-1.02276e-14
2.12489e-05
-1.62932e-14
2.12489e-05
-3.15228e-14
2.12489e-05
-5.6067e-14
2.12489e-05
-9.18831e-14
2.12489e-05
-1.39122e-13
2.12489e-05
-2.1222e-13
2.12489e-05
-3.04123e-13
-3.43168e-13
2.37489e-05
-1.04366e-12
2.37489e-05
-1.08864e-12
2.37489e-05
-8.74748e-13
2.37489e-05
-6.29575e-13
2.37489e-05
-4.30637e-13
2.37489e-05
-2.74977e-13
2.37489e-05
-1.63098e-13
2.37489e-05
-8.83133e-14
2.37489e-05
-4.21904e-14
2.37489e-05
-1.71183e-14
2.37489e-05
-7.44089e-15
2.37489e-05
-9.82113e-15
2.37489e-05
-2.32581e-14
2.37489e-05
-4.93688e-14
2.37489e-05
-9.27113e-14
2.37489e-05
-1.62552e-13
2.37489e-05
-2.69152e-13
2.37489e-05
-4.36264e-13
2.37489e-05
-6.70245e-13
-7.04825e-13
2.62489e-05
-3.98018e-13
2.62489e-05
-3.53755e-13
2.62489e-05
-3.04065e-13
2.62489e-05
-2.30941e-13
2.62489e-05
-1.68642e-13
2.62489e-05
-1.11732e-13
2.62489e-05
-6.49413e-14
2.62489e-05
-3.09099e-14
2.62489e-05
-9.57568e-15
2.62489e-05
5.27193e-16
2.62489e-05
8.01052e-16
2.62489e-05
-8.4483e-15
2.62489e-05
-2.87214e-14
2.62489e-05
-6.43999e-14
2.62489e-05
-1.2406e-13
2.62489e-05
-2.23537e-13
2.62489e-05
-3.82501e-13
2.62489e-05
-6.32787e-13
2.62489e-05
-9.97009e-13
-1.03073e-12
2.87489e-05
2.33363e-13
2.87489e-05
3.65276e-13
2.87489e-05
2.52415e-13
2.87489e-05
1.55893e-13
2.87489e-05
8.50208e-14
2.87489e-05
4.59369e-14
2.87489e-05
2.9464e-14
2.87489e-05
2.39129e-14
2.87489e-05
2.12591e-14
2.87489e-05
1.7065e-14
2.87489e-05
8.66978e-15
2.87489e-05
-6.43689e-15
2.87489e-05
-3.19475e-14
2.87489e-05
-7.44868e-14
2.87489e-05
-1.45787e-13
2.87489e-05
-2.66878e-13
2.87489e-05
-4.65503e-13
2.87489e-05
-7.80389e-13
2.87489e-05
-1.25421e-12
-1.29178e-12
3.1249e-05
7.92242e-13
3.1249e-05
9.9779e-13
3.1249e-05
7.30493e-13
3.1249e-05
4.81204e-13
3.1249e-05
2.95423e-13
3.1249e-05
1.75147e-13
3.1249e-05
1.05878e-13
3.1249e-05
6.76062e-14
3.1249e-05
4.53467e-14
3.1249e-05
2.97239e-14
3.1249e-05
1.47683e-14
3.1249e-05
-4.23224e-15
3.1249e-05
-3.25403e-14
3.1249e-05
-7.82049e-14
3.1249e-05
-1.54881e-13
3.1249e-05
-2.86908e-13
3.1249e-05
-5.08119e-13
3.1249e-05
-8.62728e-13
3.1249e-05
-1.41726e-12
-1.46374e-12
3.3749e-05
1.22419e-12
3.3749e-05
1.47666e-12
3.3749e-05
1.0714e-12
3.3749e-05
7.01968e-13
3.3749e-05
4.3363e-13
3.3749e-05
2.57704e-13
3.3749e-05
1.53331e-13
3.3749e-05
9.37792e-14
3.3749e-05
5.90535e-14
3.3749e-05
3.6502e-14
3.3749e-05
1.80576e-14
3.3749e-05
-2.26629e-15
3.3749e-05
-3.04718e-14
3.3749e-05
-7.50319e-14
3.3749e-05
-1.50067e-13
3.3749e-05
-2.80955e-13
3.3749e-05
-5.04997e-13
3.3749e-05
-8.69838e-13
3.3749e-05
-1.46853e-12
-1.52863e-12
3.62491e-05
1.48127e-12
3.62491e-05
1.74313e-12
3.62491e-05
1.22936e-12
3.62491e-05
7.88684e-13
3.62491e-05
4.82214e-13
3.62491e-05
2.83751e-13
3.62491e-05
1.66492e-13
3.62491e-05
9.96044e-14
3.62491e-05
6.09191e-14
3.62491e-05
3.66422e-14
3.62491e-05
1.81205e-14
3.62491e-05
-8.3568e-16
3.62491e-05
-2.60681e-14
3.62491e-05
-6.54468e-14
3.62491e-05
-1.32045e-13
3.62491e-05
-2.49832e-13
3.62491e-05
-4.56329e-13
3.62491e-05
-7.995e-13
3.62491e-05
-1.39877e-12
-1.47588e-12
3.87493e-05
1.52957e-12
3.87493e-05
1.75575e-12
3.87493e-05
1.18062e-12
3.87493e-05
7.33372e-13
3.87493e-05
4.40042e-13
3.87493e-05
2.5474e-13
3.87493e-05
1.4721e-13
3.87493e-05
8.66724e-14
3.87493e-05
5.20872e-14
3.87493e-05
3.08712e-14
3.87493e-05
1.52899e-14
3.87493e-05
-2.86919e-17
3.87493e-05
-1.99733e-14
3.87493e-05
-5.09292e-14
3.87493e-05
-1.03577e-13
3.87493e-05
-1.98113e-13
3.87493e-05
-3.68621e-13
3.87493e-05
-6.58763e-13
3.87493e-05
-1.20967e-12
-1.30461e-12
4.12494e-05
1.35177e-12
4.12494e-05
1.49964e-12
4.12494e-05
9.36845e-13
4.12494e-05
5.56549e-13
4.12494e-05
3.26049e-13
4.12494e-05
1.84571e-13
4.12494e-05
1.04864e-13
4.12494e-05
6.09135e-14
4.12494e-05
3.61931e-14
4.12494e-05
2.12949e-14
4.12494e-05
1.05976e-14
4.12494e-05
2.68968e-16
4.12494e-05
-1.31051e-14
4.12494e-05
-3.38703e-14
4.12494e-05
-6.93834e-14
4.12494e-05
-1.342e-13
4.12494e-05
-2.55256e-13
4.12494e-05
-4.66124e-13
4.12494e-05
-9.16791e-13
-1.02563e-12
4.37496e-05
9.6734e-13
4.37496e-05
1.01237e-12
4.37496e-05
5.59397e-13
4.37496e-05
3.13996e-13
4.37496e-05
1.79081e-13
4.37496e-05
9.84538e-14
4.37496e-05
5.48217e-14
4.37496e-05
3.14965e-14
4.37496e-05
1.85958e-14
4.37496e-05
1.09485e-14
4.37496e-05
5.52568e-15
4.37496e-05
2.80047e-16
4.37496e-05
-6.61262e-15
4.37496e-05
-1.73731e-14
4.37496e-05
-3.58357e-14
4.37496e-05
-7.00761e-14
4.37496e-05
-1.37082e-13
4.37496e-05
-2.54519e-13
4.37496e-05
-5.57855e-13
-6.67514e-13
4.62497e-05
4.27492e-13
4.62497e-05
4.09875e-13
4.62497e-05
1.82874e-13
4.62497e-05
9.40604e-14
4.62497e-05
5.26779e-14
4.62497e-05
2.76257e-14
4.62497e-05
1.49655e-14
4.62497e-05
8.52746e-15
4.62497e-05
5.0467e-15
4.62497e-05
3.02617e-15
4.62497e-05
1.6105e-15
4.62497e-05
1.92014e-16
4.62497e-05
-1.80315e-15
4.62497e-05
-4.96017e-15
4.62497e-05
-1.03066e-14
4.62497e-05
-2.03767e-14
4.62497e-05
-4.15457e-14
4.62497e-05
-7.68536e-14
4.62497e-05
-2.04019e-13
-2.76303e-13
4.87499e-05
4.87499e-05
4.87499e-05
4.87499e-05
4.87499e-05
4.87499e-05
4.87499e-05
4.87499e-05
4.87499e-05
4.87499e-05
4.87499e-05
4.87499e-05
4.87499e-05
4.87499e-05
4.87499e-05
4.87499e-05
4.87499e-05
4.87499e-05
4.87499e-05
)
;

boundaryField
{
    top
    {
        type            calculated;
        value           uniform 0;
    }
    bottom
    {
        type            calculated;
        value           uniform 0;
    }
    inlet
    {
        type            calculated;
        value           nonuniform List<scalar> 
20
(
-1.24991e-06
-3.74973e-06
-6.24957e-06
-8.74941e-06
-1.12493e-05
-1.37491e-05
-1.6249e-05
-1.8749e-05
-2.12489e-05
-2.37489e-05
-2.62489e-05
-2.87489e-05
-3.1249e-05
-3.3749e-05
-3.62491e-05
-3.87493e-05
-4.12494e-05
-4.37496e-05
-4.62497e-05
-4.87499e-05
)
;
    }
    outlet
    {
        type            calculated;
        value           nonuniform List<scalar> 
20
(
1.24991e-06
3.74974e-06
6.24957e-06
8.74941e-06
1.12493e-05
1.37491e-05
1.6249e-05
1.8749e-05
2.12489e-05
2.37489e-05
2.62489e-05
2.87489e-05
3.1249e-05
3.3749e-05
3.62491e-05
3.87493e-05
4.12494e-05
4.37496e-05
4.62497e-05
4.87499e-05
)
;
    }
    frontAndBack
    {
        type            empty;
        value           nonuniform List<scalar> 0();
    }
}


// ************************************************************************* //
