/*--------------------------------*- C++ -*----------------------------------*\
  =========                 |
  \\      /  F ield         | OpenFOAM: The Open Source CFD Toolbox
   \\    /   O peration     | Website:  https://openfoam.org
    \\  /    A nd           | Version:  9
     \\/     M anipulation  |
\*---------------------------------------------------------------------------*/
FoamFile
{
    format      ascii;
    class       volVectorField;
    location    "1.7";
    object      U;
}
// * * * * * * * * * * * * * * * * * * * * * * * * * * * * * * * * * * * * * //

dimensions      [0 1 -1 0 0 0 0];

internalField   nonuniform List<vector> 
400
(
(0.0249982 -2.50337e-09 0)
(0.0249982 -2.00208e-09 0)
(0.0249982 -8.40794e-10 0)
(0.0249982 -4.47802e-10 0)
(0.0249982 -2.46903e-10 0)
(0.0249982 -1.3074e-10 0)
(0.0249982 -7.04277e-11 0)
(0.0249982 -3.52077e-11 0)
(0.0249982 -1.58508e-11 0)
(0.0249982 -6.76099e-12 0)
(0.0249982 -2.44877e-12 0)
(0.0249982 3.41993e-13 0)
(0.0249982 3.25107e-12 0)
(0.0249982 8.19602e-12 0)
(0.0249982 1.9572e-11 0)
(0.0249982 5.21063e-11 0)
(0.0249982 1.30195e-10 0)
(0.0249982 3.10782e-10 0)
(0.0249982 1.0983e-09 0)
(0.0249982 1.28799e-09 0)
(0.0749947 -8.62025e-09 0)
(0.0749947 -7.66327e-09 0)
(0.0749947 -3.99997e-09 0)
(0.0749947 -2.29576e-09 0)
(0.0749947 -1.32577e-09 0)
(0.0749947 -7.36984e-10 0)
(0.0749947 -4.05147e-10 0)
(0.0749947 -2.14263e-10 0)
(0.0749947 -1.06248e-10 0)
(0.0749947 -4.82228e-11 0)
(0.0749947 -1.71656e-11 0)
(0.0749947 1.61042e-12 0)
(0.0749947 1.85503e-11 0)
(0.0749947 4.61394e-11 0)
(0.0749947 1.0802e-10 0)
(0.0749947 2.6426e-10 0)
(0.0749947 6.21418e-10 0)
(0.0749947 1.38313e-09 0)
(0.0749947 3.75908e-09 0)
(0.0749947 4.1268e-09 0)
(0.124991 -1.56778e-08 0)
(0.124991 -1.52253e-08 0)
(0.124991 -9.19596e-09 0)
(0.124991 -5.56401e-09 0)
(0.124991 -3.31886e-09 0)
(0.124991 -1.90846e-09 0)
(0.124991 -1.07323e-09 0)
(0.124991 -5.81607e-10 0)
(0.124991 -2.98432e-10 0)
(0.124991 -1.40494e-10 0)
(0.124991 -5.3091e-11 0)
(0.124991 -4.44265e-13 0)
(0.124991 4.48706e-11 0)
(0.124991 1.1503e-10 0)
(0.124991 2.66401e-10 0)
(0.124991 6.2216e-10 0)
(0.124991 1.40158e-09 0)
(0.124991 2.95733e-09 0)
(0.124991 6.65333e-09 0)
(0.124991 6.84284e-09 0)
(0.174988 -2.15719e-08 0)
(0.174988 -2.20625e-08 0)
(0.174988 -1.45479e-08 0)
(0.174988 -9.16349e-09 0)
(0.174988 -5.61346e-09 0)
(0.174988 -3.30074e-09 0)
(0.174988 -1.88444e-09 0)
(0.174988 -1.03663e-09 0)
(0.174988 -5.41041e-10 0)
(0.174988 -2.59365e-10 0)
(0.174988 -1.01799e-10 0)
(0.174988 -8.49143e-12 0)
(0.174988 6.75045e-11 0)
(0.174988 1.79394e-10 0)
(0.174988 4.14828e-10 0)
(0.174988 9.47725e-10 0)
(0.174988 2.07814e-09 0)
(0.174988 4.2183e-09 0)
(0.174988 8.51865e-09 0)
(0.174988 8.40462e-09 0)
(0.224985 -2.54373e-08 0)
(0.224985 -2.68058e-08 0)
(0.224985 -1.87428e-08 0)
(0.224985 -1.22089e-08 0)
(0.224985 -7.65533e-09 0)
(0.224985 -4.58738e-09 0)
(0.224985 -2.65434e-09 0)
(0.224985 -1.4761e-09 0)
(0.224985 -7.78375e-10 0)
(0.224985 -3.77882e-10 0)
(0.224985 -1.53752e-10 0)
(0.224985 -2.44595e-11 0)
(0.224985 7.33932e-11 0)
(0.224985 2.08222e-10 0)
(0.224985 4.86414e-10 0)
(0.224985 1.10386e-09 0)
(0.224985 2.38613e-09 0)
(0.224985 4.70252e-09 0)
(0.224985 8.91423e-09 0)
(0.224985 8.56041e-09 0)
(0.274983 -2.70252e-08 0)
(0.274983 -2.89815e-08 0)
(0.274983 -2.11342e-08 0)
(0.274983 -1.41487e-08 0)
(0.274983 -9.05145e-09 0)
(0.274983 -5.51071e-09 0)
(0.274983 -3.22413e-09 0)
(0.274983 -1.80697e-09 0)
(0.274983 -9.58479e-10 0)
(0.274983 -4.68798e-10 0)
(0.274983 -1.96678e-10 0)
(0.274983 -4.6281e-11 0)
(0.274983 5.52057e-11 0)
(0.274983 1.81594e-10 0)
(0.274983 4.40634e-10 0)
(0.274983 1.01826e-09 0)
(0.274983 2.21397e-09 0)
(0.274983 4.29572e-09 0)
(0.274983 7.8642e-09 0)
(0.274983 7.38344e-09 0)
(0.324981 -2.63749e-08 0)
(0.324981 -2.85561e-08 0)
(0.324981 -2.14782e-08 0)
(0.324981 -1.46968e-08 0)
(0.324981 -9.5623e-09 0)
(0.324981 -5.89888e-09 0)
(0.324981 -3.48124e-09 0)
(0.324981 -1.9602e-09 0)
(0.324981 -1.04119e-09 0)
(0.324981 -5.09988e-10 0)
(0.324981 -2.19457e-10 0)
(0.324981 -6.98097e-11 0)
(0.324981 1.20136e-11 0)
(0.324981 9.40005e-11 0)
(0.324981 2.67885e-10 0)
(0.324981 6.81497e-10 0)
(0.324981 1.57126e-09 0)
(0.324981 3.08057e-09 0)
(0.324981 5.61387e-09 0)
(0.324981 5.10355e-09 0)
(0.374979 -2.3679e-08 0)
(0.374979 -2.57229e-08 0)
(0.374979 -1.98023e-08 0)
(0.374979 -1.37845e-08 0)
(0.374979 -9.09698e-09 0)
(0.374979 -5.67273e-09 0)
(0.374979 -3.36818e-09 0)
(0.374979 -1.89808e-09 0)
(0.374979 -1.00337e-09 0)
(0.374979 -4.87824e-10 0)
(0.374979 -2.14115e-10 0)
(0.374979 -8.98785e-11 0)
(0.374979 -5.13558e-11 0)
(0.374979 -4.68314e-11 0)
(0.374979 -1.51214e-11 0)
(0.374979 1.3282e-10 0)
(0.374979 5.46293e-10 0)
(0.374979 1.24507e-09 0)
(0.374979 2.48511e-09 0)
(0.374979 2.00739e-09 0)
(0.424978 -1.92792e-08 0)
(0.424978 -2.08641e-08 0)
(0.424978 -1.63531e-08 0)
(0.424978 -1.15397e-08 0)
(0.424978 -7.71149e-09 0)
(0.424978 -4.85254e-09 0)
(0.424978 -2.89018e-09 0)
(0.424978 -1.62071e-09 0)
(0.424978 -8.43698e-10 0)
(0.424978 -4.00499e-10 0)
(0.424978 -1.78051e-10 0)
(0.424978 -1.0192e-10 0)
(0.424978 -1.25925e-10 0)
(0.424978 -2.22672e-10 0)
(0.424978 -3.7133e-10 0)
(0.424978 -5.53984e-10 0)
(0.424978 -7.2078e-10 0)
(0.424978 -9.65303e-10 0)
(0.424978 -1.15368e-09 0)
(0.424978 -1.57195e-09 0)
(0.474978 -1.36247e-08 0)
(0.474978 -1.45017e-08 0)
(0.474978 -1.15512e-08 0)
(0.474978 -8.25372e-09 0)
(0.474978 -5.59168e-09 0)
(0.474978 -3.55043e-09 0)
(0.474978 -2.11297e-09 0)
(0.474978 -1.16582e-09 0)
(0.474978 -5.83223e-10 0)
(0.474978 -2.5879e-10 0)
(0.474978 -1.1496e-10 0)
(0.474978 -1.0322e-10 0)
(0.474978 -2.0071e-10 0)
(0.474978 -4.08878e-10 0)
(0.474978 -7.51572e-10 0)
(0.474978 -1.28582e-09 0)
(0.474978 -2.06478e-09 0)
(0.474978 -3.28166e-09 0)
(0.474978 -4.92525e-09 0)
(0.474978 -5.28868e-09 0)
(0.524978 -7.24447e-09 0)
(0.524978 -7.25818e-09 0)
(0.524978 -5.94128e-09 0)
(0.524978 -4.33977e-09 0)
(0.524978 -3.02348e-09 0)
(0.524978 -1.95177e-09 0)
(0.524978 -1.15135e-09 0)
(0.524978 -6.0225e-10 0)
(0.524978 -2.61817e-10 0)
(0.524978 -8.4378e-11 0)
(0.524978 -3.44004e-11 0)
(0.524978 -9.36339e-11 0)
(0.524978 -2.64882e-10 0)
(0.524978 -5.78952e-10 0)
(0.524978 -1.10306e-09 0)
(0.524978 -1.96525e-09 0)
(0.524978 -3.31782e-09 0)
(0.524978 -5.44095e-09 0)
(0.524978 -8.46719e-09 0)
(0.524978 -8.80371e-09 0)
(0.574978 -7.12247e-10 0)
(0.574978 1.81817e-10 0)
(0.574978 -1.46859e-10 0)
(0.574978 -2.86837e-10 0)
(0.574978 -3.5534e-10 0)
(0.574978 -2.87419e-10 0)
(0.574978 -1.50835e-10 0)
(0.574978 -1.82409e-11 0)
(0.574978 6.88465e-11 0)
(0.574978 9.40682e-11 0)
(0.574978 4.99492e-11 0)
(0.574978 -7.55519e-11 0)
(0.574978 -3.09555e-10 0)
(0.574978 -7.08744e-10 0)
(0.574978 -1.37724e-09 0)
(0.574978 -2.50329e-09 0)
(0.574978 -4.3281e-09 0)
(0.574978 -7.20715e-09 0)
(0.574978 -1.14523e-08 0)
(0.574978 -1.18052e-08 0)
(0.624979 5.38082e-09 0)
(0.624979 7.10565e-09 0)
(0.624979 5.17846e-09 0)
(0.624979 3.39125e-09 0)
(0.624979 2.04694e-09 0)
(0.624979 1.20032e-09 0)
(0.624979 7.36322e-10 0)
(0.624979 4.94078e-10 0)
(0.624979 3.54896e-10 0)
(0.624979 2.46446e-10 0)
(0.624979 1.23108e-10 0)
(0.624979 -5.3163e-11 0)
(0.624979 -3.28964e-10 0)
(0.624979 -7.79915e-10 0)
(0.624979 -1.53626e-09 0)
(0.624979 -2.82987e-09 0)
(0.624979 -4.97423e-09 0)
(0.624979 -8.38809e-09 0)
(0.624979 -1.36031e-08 0)
(0.624979 -1.40228e-08 0)
(0.674981 1.04637e-08 0)
(0.674981 1.28133e-08 0)
(0.674981 9.40382e-09 0)
(0.674981 6.21482e-09 0)
(0.674981 3.85058e-09 0)
(0.674981 2.29643e-09 0)
(0.674981 1.37762e-09 0)
(0.674981 8.55978e-10 0)
(0.674981 5.50885e-10 0)
(0.674981 3.47472e-10 0)
(0.674981 1.72113e-10 0)
(0.674981 -3.12139e-11 0)
(0.674981 -3.21018e-10 0)
(0.674981 -7.8243e-10 0)
(0.674981 -1.55798e-09 0)
(0.674981 -2.90194e-09 0)
(0.674981 -5.17712e-09 0)
(0.674981 -8.8492e-09 0)
(0.674981 -1.47053e-08 0)
(0.674981 -1.52422e-08 0)
(0.724983 1.40129e-08 0)
(0.724983 1.66603e-08 0)
(0.724983 1.19881e-08 0)
(0.724983 7.8034e-09 0)
(0.724983 4.81094e-09 0)
(0.724983 2.85208e-09 0)
(0.724983 1.68639e-09 0)
(0.724983 1.01833e-09 0)
(0.724983 6.29621e-10 0)
(0.724983 3.82376e-10 0)
(0.724983 1.89142e-10 0)
(0.724983 -1.36323e-11 0)
(0.724983 -2.87311e-10 0)
(0.724983 -7.16011e-10 0)
(0.724983 -1.43923e-09 0)
(0.724983 -2.70949e-09 0)
(0.724983 -4.90926e-09 0)
(0.724983 -8.52658e-09 0)
(0.724983 -1.46206e-08 0)
(0.724983 -1.53176e-08 0)
(0.774985 1.56069e-08 0)
(0.774985 1.81203e-08 0)
(0.774985 1.25524e-08 0)
(0.774985 7.94913e-09 0)
(0.774985 4.82308e-09 0)
(0.774985 2.81917e-09 0)
(0.774985 1.64224e-09 0)
(0.774985 9.73608e-10 0)
(0.774985 5.88896e-10 0)
(0.774985 3.50705e-10 0)
(0.774985 1.73602e-10 0)
(0.774985 -2.46559e-12 0)
(0.774985 -2.32802e-10 0)
(0.774985 -5.90529e-10 0)
(0.774985 -1.19726e-09 0)
(0.774985 -2.27882e-09 0)
(0.774985 -4.20194e-09 0)
(0.774985 -7.43806e-09 0)
(0.774985 -1.33022e-08 0)
(0.774985 -1.41862e-08 0)
(0.824988 1.49253e-08 0)
(0.824988 1.68343e-08 0)
(0.824988 1.09813e-08 0)
(0.824988 6.68474e-09 0)
(0.824988 3.96458e-09 0)
(0.824988 2.2707e-09 0)
(0.824988 1.30077e-09 0)
(0.824988 7.59764e-10 0)
(0.824988 4.53091e-10 0)
(0.824988 2.66999e-10 0)
(0.824988 1.32577e-10 0)
(0.824988 2.59886e-12 0)
(0.824988 -1.65176e-10 0)
(0.824988 -4.2518e-10 0)
(0.824988 -8.69032e-10 0)
(0.824988 -1.67327e-09 0)
(0.824988 -3.14952e-09 0)
(0.824988 -5.69655e-09 0)
(0.824988 -1.0804e-08 0)
(0.824988 -1.18687e-08 0)
(0.874991 1.192e-08 0)
(0.874991 1.28587e-08 0)
(0.874991 7.60999e-09 0)
(0.874991 4.39088e-09 0)
(0.874991 2.53321e-09 0)
(0.874991 1.41253e-09 0)
(0.874991 7.93688e-10 0)
(0.874991 4.57706e-10 0)
(0.874991 2.70448e-10 0)
(0.874991 1.5869e-10 0)
(0.874991 7.93206e-11 0)
(0.874991 3.12383e-12 0)
(0.874991 -9.58522e-11 0)
(0.874991 -2.49783e-10 0)
(0.874991 -5.13258e-10 0)
(0.874991 -9.98686e-10 0)
(0.874991 -1.92785e-09 0)
(0.874991 -3.56082e-09 0)
(0.874991 -7.37807e-09 0)
(0.874991 -8.52867e-09 0)
(0.924995 7.07642e-09 0)
(0.924995 7.1251e-09 0)
(0.924995 3.57635e-09 0)
(0.924995 1.89765e-09 0)
(0.924995 1.05944e-09 0)
(0.924995 5.66516e-10 0)
(0.924995 3.09571e-10 0)
(0.924995 1.76382e-10 0)
(0.924995 1.03967e-10 0)
(0.924995 6.16361e-11 0)
(0.924995 3.18078e-11 0)
(0.924995 2.48152e-12 0)
(0.924995 -3.71235e-11 0)
(0.924995 -9.94852e-11 0)
(0.924995 -2.06574e-10 0)
(0.924995 -4.07879e-10 0)
(0.924995 -8.16643e-10 0)
(0.924995 -1.53177e-09 0)
(0.924995 -3.68499e-09 0)
(0.924995 -4.65e-09 0)
(0.974998 2.18585e-09 0)
(0.974998 2.04308e-09 0)
(0.974998 8.1443e-10 0)
(0.974998 3.78063e-10 0)
(0.974998 2.02783e-10 0)
(0.974998 1.00849e-10 0)
(0.974998 5.27614e-11 0)
(0.974998 2.97147e-11 0)
(0.974998 1.75176e-11 0)
(0.974998 1.04885e-11 0)
(0.974998 5.56781e-12 0)
(0.974998 3.76797e-13 0)
(0.974998 -7.50777e-12 0)
(0.974998 -2.02266e-11 0)
(0.974998 -4.10241e-11 0)
(0.974998 -8.07415e-11 0)
(0.974998 -1.70307e-10 0)
(0.974998 -3.20037e-10 0)
(0.974998 -9.59048e-10 0)
(0.974998 -1.34135e-09 0)
)
;

boundaryField
{
    top
    {
        type            fixedValue;
        value           uniform (1 0 0);
    }
    bottom
    {
        type            fixedValue;
        value           uniform (0 0 0);
    }
    inlet
    {
        type            zeroGradient;
    }
    outlet
    {
        type            zeroGradient;
    }
    frontAndBack
    {
        type            empty;
    }
}


// ************************************************************************* //
