/*--------------------------------*- C++ -*----------------------------------*\
  =========                 |
  \\      /  F ield         | OpenFOAM: The Open Source CFD Toolbox
   \\    /   O peration     | Website:  https://openfoam.org
    \\  /    A nd           | Version:  9
     \\/     M anipulation  |
\*---------------------------------------------------------------------------*/
FoamFile
{
    format      ascii;
    class       volScalarField;
    location    "3.2";
    object      p;
}
// * * * * * * * * * * * * * * * * * * * * * * * * * * * * * * * * * * * * * //

dimensions      [0 2 -2 0 0 0 0];

internalField   nonuniform List<scalar> 
400
(
8.71526e-10
1.44438e-09
1.39667e-09
1.3285e-09
1.21655e-09
1.08397e-09
9.4586e-10
8.05344e-10
6.64767e-10
5.25311e-10
3.86343e-10
2.46969e-10
1.06872e-10
-3.38875e-11
-1.75162e-10
-3.17222e-10
-4.56416e-10
-5.82724e-10
-7.42253e-10
-4.68933e-10
8.26544e-10
1.37608e-09
1.32415e-09
1.28505e-09
1.1902e-09
1.06809e-09
9.36675e-10
8.00212e-10
6.62013e-10
5.23932e-10
3.85756e-10
2.46892e-10
1.07263e-10
-3.27893e-11
-1.72595e-10
-3.11678e-10
-4.44642e-10
-5.55677e-10
-7.24586e-10
-4.56917e-10
8.35689e-10
1.3821e-09
1.28363e-09
1.25709e-09
1.17141e-09
1.05567e-09
9.29013e-10
7.95672e-10
6.59391e-10
5.22447e-10
3.84964e-10
2.46585e-10
1.074e-10
-3.20659e-11
-1.70822e-10
-3.08211e-10
-4.38645e-10
-5.42558e-10
-7.47913e-10
-4.73728e-10
8.67774e-10
1.44234e-09
1.2751e-09
1.24529e-09
1.16126e-09
1.04762e-09
9.23461e-10
7.92035e-10
6.57033e-10
5.20904e-10
3.83973e-10
2.46015e-10
1.07193e-10
-3.19006e-11
-1.70193e-10
-3.07339e-10
-4.38678e-10
-5.43506e-10
-7.95102e-10
-4.99745e-10
9.02918e-10
1.5258e-09
1.28312e-09
1.24261e-09
1.15629e-09
1.04228e-09
9.19224e-10
7.88915e-10
6.54769e-10
5.19265e-10
3.82812e-10
2.45227e-10
1.06685e-10
-3.22197e-11
-1.70478e-10
-3.08258e-10
-4.42332e-10
-5.51238e-10
-8.47886e-10
-5.24468e-10
9.35365e-10
1.61598e-09
1.29935e-09
1.24486e-09
1.15442e-09
1.03859e-09
9.15729e-10
7.86051e-10
6.52521e-10
5.17539e-10
3.81519e-10
2.44266e-10
1.05932e-10
-3.29124e-11
-1.71388e-10
-3.10225e-10
-4.4771e-10
-5.61345e-10
-8.96299e-10
-5.44584e-10
9.63989e-10
1.70376e-09
1.31902e-09
1.24949e-09
1.15422e-09
1.03581e-09
9.12608e-10
7.8329e-10
6.5026e-10
5.1575e-10
3.80134e-10
2.43184e-10
1.05008e-10
-3.3847e-11
-1.72643e-10
-3.12589e-10
-4.53441e-10
-5.71154e-10
-9.35271e-10
-5.5951e-10
9.87654e-10
1.78164e-09
1.33829e-09
1.25428e-09
1.15438e-09
1.03328e-09
9.09543e-10
7.805e-10
6.47952e-10
5.13915e-10
3.787e-10
2.42039e-10
1.04007e-10
-3.48603e-11
-1.73923e-10
-3.1472e-10
-4.58285e-10
-5.78662e-10
-9.61275e-10
-5.6869e-10
1.00565e-09
1.84381e-09
1.35402e-09
1.25748e-09
1.15387e-09
1.03049e-09
9.06317e-10
7.77603e-10
6.45591e-10
5.12062e-10
3.77263e-10
2.40903e-10
1.03034e-10
-3.57752e-11
-1.74921e-10
-3.16059e-10
-4.6124e-10
-5.82397e-10
-9.72317e-10
-5.7197e-10
1.01743e-09
1.88601e-09
1.36408e-09
1.25799e-09
1.15209e-09
1.02722e-09
9.02868e-10
7.74613e-10
6.43215e-10
5.10238e-10
3.75879e-10
2.39844e-10
1.02193e-10
-3.6433e-11
-1.7538e-10
-3.16195e-10
-4.61616e-10
-5.81512e-10
-9.67652e-10
-5.69391e-10
1.02263e-09
1.90546e-09
1.36727e-09
1.25538e-09
1.14888e-09
1.02348e-09
8.993e-10
7.71637e-10
6.40913e-10
5.08511e-10
3.74604e-10
2.38923e-10
1.01563e-10
-3.67201e-11
-1.75137e-10
-3.14905e-10
-4.59089e-10
-5.7574e-10
-9.47647e-10
-5.61202e-10
1.02089e-09
1.90081e-09
1.36333e-09
1.24985e-09
1.14449e-09
1.01955e-09
8.95856e-10
7.68862e-10
6.38813e-10
5.06966e-10
3.73496e-10
2.38187e-10
1.0119e-10
-3.65888e-11
-1.7415e-10
-3.12185e-10
-4.53705e-10
-5.65358e-10
-9.136e-10
-5.47787e-10
1.01191e-09
1.87219e-09
1.35298e-09
1.24221e-09
1.13954e-09
1.0159e-09
8.92888e-10
7.66527e-10
6.37067e-10
5.0569e-10
3.72603e-10
2.37656e-10
1.01075e-10
-3.60711e-11
-1.72514e-10
-3.08262e-10
-4.45891e-10
-5.5116e-10
-8.67659e-10
-5.29675e-10
9.95569e-10
1.8215e-09
1.33795e-09
1.23387e-09
1.13496e-09
1.01315e-09
8.9079e-10
7.64884e-10
6.35824e-10
5.04768e-10
3.71961e-10
2.3733e-10
1.01172e-10
-3.52796e-11
-1.7046e-10
-3.03594e-10
-4.36452e-10
-5.34451e-10
-8.12817e-10
-5.07593e-10
9.7193e-10
1.75255e-09
1.32111e-09
1.22669e-09
1.13187e-09
1.01193e-09
8.89939e-10
7.64148e-10
6.35205e-10
5.04256e-10
3.71585e-10
2.3718e-10
1.01396e-10
-3.43962e-11
-1.68341e-10
-2.98841e-10
-4.26536e-10
-5.17028e-10
-7.52894e-10
-4.82491e-10
9.41652e-10
1.67156e-09
1.30622e-09
1.22288e-09
1.13144e-09
1.01283e-09
8.90606e-10
7.64452e-10
6.35268e-10
5.04175e-10
3.71464e-10
2.37157e-10
1.01632e-10
-3.36492e-11
-1.66585e-10
-2.948e-10
-4.17553e-10
-5.01073e-10
-6.92542e-10
-4.55611e-10
9.05243e-10
1.58705e-09
1.29814e-09
1.22464e-09
1.13472e-09
1.01624e-09
8.92917e-10
7.65811e-10
6.35999e-10
5.045e-10
3.71564e-10
2.37195e-10
1.0175e-10
-3.32886e-11
-1.6565e-10
-2.92339e-10
-4.11102e-10
-4.89224e-10
-6.37232e-10
-4.28291e-10
8.68005e-10
1.51572e-09
1.30508e-09
1.23547e-09
1.14309e-09
1.02267e-09
8.97e-10
7.68236e-10
6.37375e-10
5.05204e-10
3.71845e-10
2.37219e-10
1.01593e-10
-3.36151e-11
-1.66086e-10
-2.9252e-10
-4.0937e-10
-4.85718e-10
-5.96036e-10
-4.04193e-10
8.46901e-10
1.48883e-09
1.34221e-09
1.26113e-09
1.15898e-09
1.03299e-09
9.03149e-10
7.71812e-10
6.39429e-10
5.06307e-10
3.72314e-10
2.37194e-10
1.01051e-10
-3.48825e-11
-1.68452e-10
-2.966e-10
-4.15249e-10
-4.9734e-10
-5.84973e-10
-3.94657e-10
8.73122e-10
1.53382e-09
1.40962e-09
1.30065e-09
1.18116e-09
1.04609e-09
9.1061e-10
7.76077e-10
6.41884e-10
5.07658e-10
3.72901e-10
2.37119e-10
1.00207e-10
-3.68848e-11
-1.72394e-10
-3.04007e-10
-4.28384e-10
-5.23788e-10
-6.13799e-10
-4.16629e-10
)
;

boundaryField
{
    top
    {
        type            zeroGradient;
    }
    bottom
    {
        type            zeroGradient;
    }
    inlet
    {
        type            fixedValue;
        value           uniform 0;
    }
    outlet
    {
        type            fixedValue;
        value           uniform 0;
    }
    frontAndBack
    {
        type            empty;
    }
}


// ************************************************************************* //
