/*--------------------------------*- C++ -*----------------------------------*\
  =========                 |
  \\      /  F ield         | OpenFOAM: The Open Source CFD Toolbox
   \\    /   O peration     | Website:  https://openfoam.org
    \\  /    A nd           | Version:  9
     \\/     M anipulation  |
\*---------------------------------------------------------------------------*/
FoamFile
{
    format      ascii;
    class       surfaceScalarField;
    location    "3.2";
    object      phi;
}
// * * * * * * * * * * * * * * * * * * * * * * * * * * * * * * * * * * * * * //

dimensions      [0 3 -1 0 0 0 0];

internalField   nonuniform List<scalar> 
760
(
1.25e-06
-5.33783e-15
1.25e-06
-4.44211e-15
1.25e-06
-2.11598e-15
1.25e-06
-1.20318e-15
1.25e-06
-6.9066e-16
1.25e-06
-3.79573e-16
1.25e-06
-2.0802e-16
1.25e-06
-1.08937e-16
1.25e-06
-5.31872e-17
1.25e-06
-2.42251e-17
1.25e-06
-9.0971e-18
1.25e-06
1.99295e-19
1.25e-06
8.75404e-18
1.25e-06
2.26262e-17
1.25e-06
5.36098e-17
1.25e-06
1.35369e-16
1.25e-06
3.22802e-16
1.25e-06
7.2191e-16
1.25e-06
2.27366e-15
2.6245e-15
3.75e-06
-1.28497e-14
3.75e-06
-1.20413e-14
3.75e-06
-6.88455e-15
3.75e-06
-4.09737e-15
3.75e-06
-2.41799e-15
3.75e-06
-1.37585e-15
3.75e-06
-7.68543e-16
3.75e-06
-4.13806e-16
3.75e-06
-2.10559e-16
3.75e-06
-9.82762e-17
3.75e-06
-3.66501e-17
3.75e-06
4.41622e-19
3.75e-06
3.26519e-17
3.75e-06
8.32061e-17
3.75e-06
1.93678e-16
3.75e-06
4.60024e-16
3.75e-06
1.05435e-15
3.75e-06
2.26393e-15
3.75e-06
5.5176e-15
5.83112e-15
6.25e-06
-1.95439e-14
6.25e-06
-1.96076e-14
6.25e-06
-1.24641e-14
6.25e-06
-7.71843e-15
6.25e-06
-4.67717e-15
6.25e-06
-2.72584e-15
6.25e-06
-1.547e-15
6.25e-06
-8.4618e-16
6.25e-06
-4.38816e-16
6.25e-06
-2.08808e-16
6.25e-06
-8.06822e-17
6.25e-06
-4.46719e-18
6.25e-06
5.87926e-17
6.25e-06
1.53913e-16
6.25e-06
3.56479e-16
6.25e-06
8.22934e-16
6.25e-06
1.82729e-15
6.25e-06
3.77968e-15
6.25e-06
8.00605e-15
8.01201e-15
8.74999e-06
-2.45562e-14
8.74999e-06
-2.55763e-14
8.74999e-06
-1.7409e-14
8.74999e-06
-1.11706e-14
8.74999e-06
-6.93263e-15
8.74999e-06
-4.12061e-15
8.74999e-06
-2.37074e-15
8.74999e-06
-1.31221e-15
8.74999e-06
-6.88756e-16
8.74999e-06
-3.32451e-16
8.74999e-06
-1.33187e-16
8.74999e-06
-1.70268e-17
8.74999e-06
7.37252e-17
8.74999e-06
2.02685e-16
8.74999e-06
4.71501e-16
8.74999e-06
1.07387e-15
8.74999e-06
2.33827e-15
8.74999e-06
4.67565e-15
8.74999e-06
9.14394e-15
8.86823e-15
1.125e-05
-2.73751e-14
1.125e-05
-2.9149e-14
1.125e-05
-2.08271e-14
1.125e-05
-1.37633e-14
1.125e-05
-8.72302e-15
1.125e-05
-5.27177e-15
1.125e-05
-3.06866e-15
1.125e-05
-1.71358e-15
1.125e-05
-9.06329e-16
1.125e-05
-4.41656e-16
1.125e-05
-1.82679e-16
1.125e-05
-3.67273e-17
1.125e-05
6.73584e-17
1.125e-05
2.03918e-16
1.125e-05
4.84926e-16
1.125e-05
1.11021e-15
1.125e-05
2.40648e-15
1.125e-05
4.70735e-15
1.125e-05
8.77802e-15
8.32038e-15
1.375e-05
-2.78643e-14
1.375e-05
-3.00539e-14
1.375e-05
-2.22496e-14
1.375e-05
-1.50596e-14
1.375e-05
-9.71718e-15
1.375e-05
-5.95569e-15
1.375e-05
-3.49982e-15
1.375e-05
-1.96607e-15
1.375e-05
-1.04347e-15
1.375e-05
-5.10635e-16
1.375e-05
-2.16986e-16
1.375e-05
-6.03592e-17
1.375e-05
3.54284e-17
1.375e-05
1.44471e-16
1.375e-05
3.71081e-16
1.375e-05
8.89738e-16
1.375e-05
1.98073e-15
1.375e-05
3.85786e-15
1.375e-05
7.04856e-15
6.51688e-15
1.625e-05
-2.61163e-14
1.625e-05
-2.83456e-14
1.625e-05
-2.15511e-14
1.625e-05
-1.48671e-14
1.625e-05
-9.73956e-15
1.625e-05
-6.03938e-15
1.625e-05
-3.57448e-15
1.625e-05
-2.01333e-15
1.625e-05
-1.06678e-15
1.625e-05
-5.2053e-16
1.625e-05
-2.26066e-16
1.625e-05
-8.30765e-17
1.625e-05
-2.01136e-17
1.625e-05
2.53594e-17
1.625e-05
1.33266e-16
1.625e-05
4.27461e-16
1.625e-05
1.10952e-15
1.625e-05
2.26375e-15
1.625e-05
4.2348e-15
3.71015e-15
1.875e-05
-2.24137e-14
1.875e-05
-2.4325e-14
1.875e-05
-1.88725e-14
1.875e-05
-1.32169e-14
1.875e-05
-8.7719e-15
1.875e-05
-5.49226e-15
1.875e-05
-3.26536e-15
1.875e-05
-1.83579e-15
1.875e-05
-9.63539e-16
1.875e-05
-4.63326e-16
1.875e-05
-2.04447e-16
1.875e-05
-9.98359e-17
1.875e-05
-9.21032e-17
1.875e-05
-1.39937e-16
1.875e-05
-2.00462e-16
1.875e-05
-2.17797e-16
1.875e-05
-8.77263e-17
1.875e-05
1.50027e-16
1.875e-05
6.98121e-16
2.26712e-16
2.125e-05
-1.71677e-14
2.125e-05
-1.84636e-14
2.125e-05
-1.45633e-14
2.125e-05
-1.03282e-14
2.125e-05
-6.94103e-15
2.125e-05
-4.38372e-15
2.125e-05
-2.60973e-15
2.125e-05
-1.45332e-15
2.125e-05
-7.44114e-16
2.125e-05
-3.4374e-16
2.125e-05
-1.52707e-16
2.125e-05
-1.06847e-16
2.125e-05
-1.70134e-16
2.125e-05
-3.29031e-16
2.125e-05
-5.85114e-16
2.125e-05
-9.58799e-16
2.125e-05
-1.45164e-15
2.125e-05
-2.21428e-15
2.125e-05
-3.17315e-15
-3.58051e-15
2.375e-05
-1.08892e-14
2.375e-05
-1.13586e-14
2.375e-05
-9.12692e-15
2.375e-05
-6.5689e-15
2.375e-05
-4.49327e-15
2.375e-05
-2.86918e-15
2.375e-05
-1.70188e-15
2.375e-05
-9.21598e-16
2.375e-05
-4.40356e-16
2.375e-05
-1.78743e-16
2.375e-05
-7.77687e-17
2.375e-05
-1.02603e-16
2.375e-05
-2.42798e-16
2.375e-05
-5.15218e-16
2.375e-05
-9.67433e-16
2.375e-05
-1.69609e-15
2.375e-05
-2.80827e-15
2.375e-05
-4.55178e-15
2.375e-05
-6.99299e-15
-7.35376e-15
2.625e-05
-4.15283e-15
2.625e-05
-3.69101e-15
2.625e-05
-3.17259e-15
2.625e-05
-2.40967e-15
2.625e-05
-1.75967e-15
2.625e-05
-1.16591e-15
2.625e-05
-6.77732e-16
2.625e-05
-3.22661e-16
2.625e-05
-1.00054e-16
2.625e-05
5.37314e-18
2.625e-05
8.24359e-18
2.625e-05
-8.82666e-17
2.625e-05
-2.99787e-16
2.625e-05
-6.72038e-16
2.625e-05
-1.29449e-15
2.625e-05
-2.33235e-15
2.625e-05
-3.99086e-15
2.625e-05
-6.60212e-15
2.625e-05
-1.04022e-14
-1.0754e-14
2.875e-05
2.43475e-15
2.875e-05
3.8111e-15
2.875e-05
2.63353e-15
2.875e-05
1.62644e-15
2.875e-05
8.86988e-16
2.875e-05
4.79185e-16
2.875e-05
3.07286e-16
2.875e-05
2.49359e-16
2.875e-05
2.21684e-16
2.875e-05
1.77938e-16
2.875e-05
9.03588e-17
2.875e-05
-6.72564e-17
2.875e-05
-3.33434e-16
2.875e-05
-7.77262e-16
2.875e-05
-1.52115e-15
2.875e-05
-2.78452e-15
2.875e-05
-4.85681e-15
2.875e-05
-8.14208e-15
2.875e-05
-1.30856e-14
-1.34776e-14
3.125e-05
8.26589e-15
3.125e-05
1.04105e-14
3.125e-05
7.62165e-15
3.125e-05
5.02065e-15
3.125e-05
3.08229e-15
3.125e-05
1.82734e-15
3.125e-05
1.10459e-15
3.125e-05
7.05272e-16
3.125e-05
4.7303e-16
3.125e-05
3.10035e-16
3.125e-05
1.54003e-16
3.125e-05
-4.42377e-17
3.125e-05
-3.39602e-16
3.125e-05
-8.16025e-16
3.125e-05
-1.616e-15
3.125e-05
-2.99348e-15
3.125e-05
-5.30142e-15
3.125e-05
-9.00112e-15
3.125e-05
-1.47867e-14
-1.52717e-14
3.375e-05
1.27727e-14
3.375e-05
1.54069e-14
3.375e-05
1.11785e-14
3.375e-05
7.32406e-15
3.375e-05
4.52432e-15
3.375e-05
2.68874e-15
3.375e-05
1.59972e-15
3.375e-05
9.78383e-16
3.375e-05
6.16066e-16
3.375e-05
3.80771e-16
3.375e-05
1.88339e-16
3.375e-05
-2.37162e-17
3.375e-05
-3.1799e-16
3.375e-05
-7.82892e-16
3.375e-05
-1.56575e-15
3.375e-05
-2.93135e-15
3.375e-05
-5.26884e-15
3.375e-05
-9.07529e-15
3.375e-05
-1.53216e-14
-1.59487e-14
3.625e-05
1.54549e-14
3.625e-05
1.81871e-14
3.625e-05
1.28267e-14
3.625e-05
8.22886e-15
3.625e-05
5.03124e-15
3.625e-05
2.96053e-15
3.625e-05
1.73707e-15
3.625e-05
1.03917e-15
3.625e-05
6.35552e-16
3.625e-05
3.82253e-16
3.625e-05
1.89014e-16
3.625e-05
-8.76274e-18
3.625e-05
-2.72023e-16
3.625e-05
-6.8287e-16
3.625e-05
-1.37771e-15
3.625e-05
-2.60662e-15
3.625e-05
-4.76104e-15
3.625e-05
-8.34142e-15
3.625e-05
-1.45938e-14
-1.53983e-14
3.875e-05
1.59588e-14
3.875e-05
1.83188e-14
3.875e-05
1.23182e-14
3.875e-05
7.65178e-15
3.875e-05
4.59125e-15
3.875e-05
2.65785e-15
3.875e-05
1.53591e-15
3.875e-05
9.04272e-16
3.875e-05
5.43426e-16
3.875e-05
3.22059e-16
3.875e-05
1.59485e-16
3.875e-05
-3.38528e-19
3.875e-05
-2.08411e-16
3.875e-05
-5.31379e-16
3.875e-05
-1.08069e-15
3.875e-05
-2.067e-15
3.875e-05
-3.84594e-15
3.875e-05
-6.87307e-15
3.875e-05
-1.26208e-14
-1.36114e-14
4.125e-05
1.41038e-14
4.125e-05
1.56466e-14
4.125e-05
9.77471e-15
4.125e-05
5.80686e-15
4.125e-05
3.4019e-15
4.125e-05
1.92575e-15
4.125e-05
1.09409e-15
4.125e-05
6.35537e-16
4.125e-05
3.77618e-16
4.125e-05
2.22157e-16
4.125e-05
1.10537e-16
4.125e-05
2.77381e-18
4.125e-05
-1.36748e-16
4.125e-05
-3.53386e-16
4.125e-05
-7.23914e-16
4.125e-05
-1.40017e-15
4.125e-05
-2.66316e-15
4.125e-05
-4.8632e-15
4.125e-05
-9.56516e-15
-1.07008e-14
4.375e-05
1.00928e-14
4.375e-05
1.05626e-14
4.375e-05
5.83652e-15
4.375e-05
3.27614e-15
4.375e-05
1.86849e-15
4.375e-05
1.02723e-15
4.375e-05
5.71973e-16
4.375e-05
3.28612e-16
4.375e-05
1.94033e-16
4.375e-05
1.14234e-16
4.375e-05
5.76309e-17
4.375e-05
2.90378e-18
4.375e-05
-6.90039e-17
4.375e-05
-1.81276e-16
4.375e-05
-3.73898e-16
4.375e-05
-7.31127e-16
4.375e-05
-1.43021e-15
4.375e-05
-2.65544e-15
4.375e-05
-5.82028e-15
-6.96439e-15
4.625e-05
4.46024e-15
4.625e-05
4.2765e-15
4.625e-05
1.90797e-15
4.625e-05
9.81393e-16
4.625e-05
5.49642e-16
4.625e-05
2.88227e-16
4.625e-05
1.56141e-16
4.625e-05
8.89763e-17
4.625e-05
5.26639e-17
4.625e-05
3.15823e-17
4.625e-05
1.67942e-17
4.625e-05
1.99418e-18
4.625e-05
-1.88168e-17
4.625e-05
-5.1765e-17
4.625e-05
-1.07537e-16
4.625e-05
-2.1259e-16
4.625e-05
-4.33465e-16
4.625e-05
-8.01757e-16
4.625e-05
-2.12861e-15
-2.88276e-15
4.875e-05
4.875e-05
4.875e-05
4.875e-05
4.875e-05
4.875e-05
4.875e-05
4.875e-05
4.875e-05
4.875e-05
4.875e-05
4.875e-05
4.875e-05
4.875e-05
4.875e-05
4.875e-05
4.875e-05
4.875e-05
4.875e-05
)
;

boundaryField
{
    top
    {
        type            calculated;
        value           uniform 0;
    }
    bottom
    {
        type            calculated;
        value           uniform 0;
    }
    inlet
    {
        type            calculated;
        value           nonuniform List<scalar> 
20
(
-1.25e-06
-3.75e-06
-6.25e-06
-8.74999e-06
-1.125e-05
-1.375e-05
-1.625e-05
-1.875e-05
-2.125e-05
-2.375e-05
-2.625e-05
-2.875e-05
-3.125e-05
-3.375e-05
-3.625e-05
-3.875e-05
-4.125e-05
-4.375e-05
-4.625e-05
-4.875e-05
)
;
    }
    outlet
    {
        type            calculated;
        value           nonuniform List<scalar> 
20
(
1.25e-06
3.75e-06
6.25e-06
8.74999e-06
1.125e-05
1.375e-05
1.625e-05
1.875e-05
2.125e-05
2.375e-05
2.625e-05
2.875e-05
3.125e-05
3.375e-05
3.625e-05
3.875e-05
4.125e-05
4.375e-05
4.625e-05
4.875e-05
)
;
    }
    frontAndBack
    {
        type            empty;
        value           nonuniform List<scalar> 0();
    }
}


// ************************************************************************* //
