/*--------------------------------*- C++ -*----------------------------------*\
  =========                 |
  \\      /  F ield         | OpenFOAM: The Open Source CFD Toolbox
   \\    /   O peration     | Website:  https://openfoam.org
    \\  /    A nd           | Version:  9
     \\/     M anipulation  |
\*---------------------------------------------------------------------------*/
FoamFile
{
    format      ascii;
    class       volVectorField;
    location    "3.2";
    object      U;
}
// * * * * * * * * * * * * * * * * * * * * * * * * * * * * * * * * * * * * * //

dimensions      [0 1 -1 0 0 0 0];

internalField   nonuniform List<vector> 
400
(
(0.025 -2.61208e-11 0)
(0.025 -2.08925e-11 0)
(0.025 -8.77881e-12 0)
(0.025 -4.67825e-12 0)
(0.025 -2.58148e-12 0)
(0.025 -1.36876e-12 0)
(0.025 -7.38442e-13 0)
(0.025 -3.69876e-13 0)
(0.025 -1.66905e-13 0)
(0.025 -7.12274e-14 0)
(0.025 -2.56855e-14 0)
(0.025 3.80385e-15 0)
(0.025 3.44906e-14 0)
(0.025 8.66725e-14 0)
(0.025 2.06458e-13 0)
(0.025 5.47319e-13 0)
(0.025 1.36381e-12 0)
(0.025 3.24919e-12 0)
(0.025 1.14617e-11 0)
(0.025 1.34392e-11 0)
(0.0749999 -8.99421e-11 0)
(0.0749999 -7.99597e-11 0)
(0.0749999 -4.17414e-11 0)
(0.0749999 -2.39602e-11 0)
(0.0749999 -1.38389e-11 0)
(0.0749999 -7.69486e-12 0)
(0.0749999 -4.23138e-12 0)
(0.0749999 -2.2385e-12 0)
(0.0749999 -1.11034e-12 0)
(0.0749999 -5.03974e-13 0)
(0.0749999 -1.79316e-13 0)
(0.0749999 1.7006e-14 0)
(0.0749999 1.94102e-13 0)
(0.0749999 4.82603e-13 0)
(0.0749999 1.12946e-12 0)
(0.0749999 2.76118e-12 0)
(0.0749999 6.48953e-12 0)
(0.0749999 1.4438e-11 0)
(0.0749999 3.92227e-11 0)
(0.0749999 4.30575e-11 0)
(0.125 -1.63576e-10 0)
(0.125 -1.58855e-10 0)
(0.125 -9.59481e-11 0)
(0.125 -5.80538e-11 0)
(0.125 -3.46288e-11 0)
(0.125 -1.99129e-11 0)
(0.125 -1.11983e-11 0)
(0.125 -6.06872e-12 0)
(0.125 -3.11403e-12 0)
(0.125 -1.4661e-12 0)
(0.125 -5.54149e-13 0)
(0.125 -4.85336e-15 0)
(0.125 4.67893e-13 0)
(0.125 1.19988e-12 0)
(0.125 2.77923e-12 0)
(0.125 6.49111e-12 0)
(0.125 1.46232e-11 0)
(0.125 3.08547e-11 0)
(0.125 6.9416e-11 0)
(0.125 7.13932e-11 0)
(0.175 -2.25073e-10 0)
(0.175 -2.30191e-10 0)
(0.175 -1.51788e-10 0)
(0.175 -9.5609e-11 0)
(0.175 -5.85694e-11 0)
(0.175 -3.44392e-11 0)
(0.175 -1.96619e-11 0)
(0.175 -1.08161e-11 0)
(0.175 -5.64534e-12 0)
(0.175 -2.70646e-12 0)
(0.175 -1.06254e-12 0)
(0.175 -8.90689e-14 0)
(0.175 7.03719e-13 0)
(0.175 1.87098e-12 0)
(0.175 4.32721e-12 0)
(0.175 9.88702e-12 0)
(0.175 2.16809e-11 0)
(0.175 4.40095e-11 0)
(0.175 8.88767e-11 0)
(0.175 8.76873e-11 0)
(0.225 -2.65404e-10 0)
(0.225 -2.79682e-10 0)
(0.225 -1.95556e-10 0)
(0.225 -1.27385e-10 0)
(0.225 -7.98743e-11 0)
(0.225 -4.78643e-11 0)
(0.225 -2.76954e-11 0)
(0.225 -1.54019e-11 0)
(0.225 -8.12201e-12 0)
(0.225 -3.94333e-12 0)
(0.225 -1.60485e-12 0)
(0.225 -2.55897e-13 0)
(0.225 7.6497e-13 0)
(0.225 2.1716e-12 0)
(0.225 5.074e-12 0)
(0.225 1.1516e-11 0)
(0.225 2.48943e-11 0)
(0.225 4.90617e-11 0)
(0.225 9.30038e-11 0)
(0.225 8.93125e-11 0)
(0.275 -2.81971e-10 0)
(0.275 -3.02383e-10 0)
(0.275 -2.20508e-10 0)
(0.275 -1.47624e-10 0)
(0.275 -9.44414e-11 0)
(0.275 -5.74984e-11 0)
(0.275 -3.36408e-11 0)
(0.275 -1.88545e-11 0)
(0.275 -1.00015e-11 0)
(0.275 -4.89221e-12 0)
(0.275 -2.05296e-12 0)
(0.275 -4.83788e-13 0)
(0.275 5.74992e-13 0)
(0.275 1.89358e-12 0)
(0.275 4.59618e-12 0)
(0.275 1.06228e-11 0)
(0.275 2.3098e-11 0)
(0.275 4.48173e-11 0)
(0.275 8.20482e-11 0)
(0.275 7.70324e-11 0)
(0.325 -2.75186e-10 0)
(0.325 -2.97945e-10 0)
(0.325 -2.24098e-10 0)
(0.325 -1.53344e-10 0)
(0.325 -9.97716e-11 0)
(0.325 -6.15486e-11 0)
(0.325 -3.63237e-11 0)
(0.325 -2.04535e-11 0)
(0.325 -1.08647e-11 0)
(0.325 -5.32222e-12 0)
(0.325 -2.29084e-12 0)
(0.325 -7.29461e-13 0)
(0.325 1.24156e-13 0)
(0.325 9.79463e-13 0)
(0.325 2.79362e-12 0)
(0.325 7.10895e-12 0)
(0.325 1.63921e-11 0)
(0.325 3.2139e-11 0)
(0.325 5.85696e-11 0)
(0.325 5.32455e-11 0)
(0.375 -2.47058e-10 0)
(0.375 -2.68384e-10 0)
(0.375 -2.06611e-10 0)
(0.375 -1.43824e-10 0)
(0.375 -9.49167e-11 0)
(0.375 -5.91892e-11 0)
(0.375 -3.51441e-11 0)
(0.375 -1.98055e-11 0)
(0.375 -1.04703e-11 0)
(0.375 -5.09116e-12 0)
(0.375 -2.23527e-12 0)
(0.375 -9.39002e-13 0)
(0.375 -5.37128e-13 0)
(0.375 -4.90015e-13 0)
(0.375 -1.59232e-13 0)
(0.375 1.38426e-12 0)
(0.375 5.69811e-12 0)
(0.375 1.29885e-11 0)
(0.375 2.59262e-11 0)
(0.375 2.09422e-11 0)
(0.425 -2.01152e-10 0)
(0.425 -2.17689e-10 0)
(0.425 -1.70624e-10 0)
(0.425 -1.20403e-10 0)
(0.425 -8.04609e-11 0)
(0.425 -5.06315e-11 0)
(0.425 -3.0157e-11 0)
(0.425 -1.69117e-11 0)
(0.425 -8.80441e-12 0)
(0.425 -4.18011e-12 0)
(0.425 -1.85911e-12 0)
(0.425 -1.06474e-12 0)
(0.425 -1.31523e-12 0)
(0.425 -2.32465e-12 0)
(0.425 -3.87572e-12 0)
(0.425 -5.78145e-12 0)
(0.425 -7.52164e-12 0)
(0.425 -1.00728e-11 0)
(0.425 -1.20383e-11 0)
(0.425 -1.64021e-11 0)
(0.475 -1.42156e-10 0)
(0.475 -1.51306e-10 0)
(0.475 -1.20522e-10 0)
(0.475 -8.61179e-11 0)
(0.475 -5.83433e-11 0)
(0.475 -3.70457e-11 0)
(0.475 -2.20477e-11 0)
(0.475 -1.21655e-11 0)
(0.475 -6.08672e-12 0)
(0.475 -2.70154e-12 0)
(0.475 -1.20083e-12 0)
(0.475 -1.07834e-12 0)
(0.475 -2.0955e-12 0)
(0.475 -4.26737e-12 0)
(0.475 -7.84289e-12 0)
(0.475 -1.34168e-11 0)
(0.475 -2.15437e-11 0)
(0.475 -3.42398e-11 0)
(0.475 -5.1388e-11 0)
(0.475 -5.51796e-11 0)
(0.525 -7.55867e-11 0)
(0.525 -7.57299e-11 0)
(0.525 -6.19903e-11 0)
(0.525 -4.52809e-11 0)
(0.525 -3.15473e-11 0)
(0.525 -2.03656e-11 0)
(0.525 -1.20145e-11 0)
(0.525 -6.28533e-12 0)
(0.525 -2.73324e-12 0)
(0.525 -8.81729e-13 0)
(0.525 -3.60182e-13 0)
(0.525 -9.78222e-13 0)
(0.525 -2.76495e-12 0)
(0.525 -6.04176e-12 0)
(0.525 -1.151e-11 0)
(0.525 -2.05054e-11 0)
(0.525 -3.46169e-11 0)
(0.525 -5.67679e-11 0)
(0.525 -8.83417e-11 0)
(0.525 -9.18528e-11 0)
(0.575 -7.43198e-12 0)
(0.575 1.89638e-12 0)
(0.575 -1.53309e-12 0)
(0.575 -2.99378e-12 0)
(0.575 -3.70855e-12 0)
(0.575 -3.00004e-12 0)
(0.575 -1.57522e-12 0)
(0.575 -1.91827e-13 0)
(0.575 7.16949e-13 0)
(0.575 9.80243e-13 0)
(0.575 5.20078e-13 0)
(0.575 -7.89366e-13 0)
(0.575 -3.23092e-12 0)
(0.575 -7.39581e-12 0)
(0.575 -1.43704e-11 0)
(0.575 -2.61188e-11 0)
(0.575 -4.51572e-11 0)
(0.575 -7.51949e-11 0)
(0.575 -1.19486e-10 0)
(0.575 -1.23168e-10 0)
(0.625 5.61408e-11 0)
(0.625 7.41371e-11 0)
(0.625 5.40296e-11 0)
(0.625 3.53824e-11 0)
(0.625 2.13563e-11 0)
(0.625 1.25228e-11 0)
(0.625 7.68135e-12 0)
(0.625 5.1538e-12 0)
(0.625 3.70171e-12 0)
(0.625 2.57029e-12 0)
(0.625 1.28356e-12 0)
(0.625 -5.55569e-13 0)
(0.625 -3.43326e-12 0)
(0.625 -8.13814e-12 0)
(0.625 -1.60293e-11 0)
(0.625 -2.95258e-11 0)
(0.625 -5.18983e-11 0)
(0.625 -8.75158e-11 0)
(0.625 -1.41925e-10 0)
(0.625 -1.46304e-10 0)
(0.675 1.09173e-10 0)
(0.675 1.33689e-10 0)
(0.675 9.81156e-11 0)
(0.675 6.48428e-11 0)
(0.675 4.01753e-11 0)
(0.675 2.39594e-11 0)
(0.675 1.43726e-11 0)
(0.675 8.93006e-12 0)
(0.675 5.74685e-12 0)
(0.675 3.62456e-12 0)
(0.675 1.79502e-12 0)
(0.675 -3.26425e-13 0)
(0.675 -3.35012e-12 0)
(0.675 -8.16409e-12 0)
(0.675 -1.62556e-11 0)
(0.675 -3.02776e-11 0)
(0.675 -5.4015e-11 0)
(0.675 -9.23265e-11 0)
(0.675 -1.53425e-10 0)
(0.675 -1.59027e-10 0)
(0.725 1.46205e-10 0)
(0.725 1.73827e-10 0)
(0.725 1.25079e-10 0)
(0.725 8.14179e-11 0)
(0.725 5.01956e-11 0)
(0.725 2.97572e-11 0)
(0.725 1.75946e-11 0)
(0.725 1.06242e-11 0)
(0.725 6.56859e-12 0)
(0.725 3.98889e-12 0)
(0.725 1.97286e-12 0)
(0.725 -1.42783e-13 0)
(0.725 -2.99817e-12 0)
(0.725 -7.47088e-12 0)
(0.725 -1.50164e-11 0)
(0.725 -2.82695e-11 0)
(0.725 -5.12202e-11 0)
(0.725 -8.89604e-11 0)
(0.725 -1.52541e-10 0)
(0.725 -1.59814e-10 0)
(0.775 1.62835e-10 0)
(0.775 1.8906e-10 0)
(0.775 1.30967e-10 0)
(0.775 8.29385e-11 0)
(0.775 5.03223e-11 0)
(0.775 2.94139e-11 0)
(0.775 1.71341e-11 0)
(0.775 1.01578e-11 0)
(0.775 6.14386e-12 0)
(0.775 3.65862e-12 0)
(0.775 1.81084e-12 0)
(0.775 -2.60738e-14 0)
(0.775 -2.42921e-12 0)
(0.775 -6.16143e-12 0)
(0.775 -1.24918e-11 0)
(0.775 -2.37759e-11 0)
(0.775 -4.38402e-11 0)
(0.775 -7.76034e-11 0)
(0.775 -1.38786e-10 0)
(0.775 -1.48009e-10 0)
(0.825 1.55724e-10 0)
(0.825 1.75642e-10 0)
(0.825 1.14574e-10 0)
(0.825 6.97459e-11 0)
(0.825 4.13647e-11 0)
(0.825 2.36911e-11 0)
(0.825 1.35712e-11 0)
(0.825 7.92662e-12 0)
(0.825 4.72704e-12 0)
(0.825 2.78536e-12 0)
(0.825 1.38283e-12 0)
(0.825 2.68285e-14 0)
(0.825 -1.72345e-12 0)
(0.825 -4.43599e-12 0)
(0.825 -9.0669e-12 0)
(0.825 -1.74576e-11 0)
(0.825 -3.28595e-11 0)
(0.825 -5.94331e-11 0)
(0.825 -1.12721e-10 0)
(0.825 -1.23829e-10 0)
(0.875 1.24368e-10 0)
(0.875 1.34163e-10 0)
(0.875 7.94002e-11 0)
(0.875 4.58136e-11 0)
(0.875 2.64311e-11 0)
(0.875 1.4738e-11 0)
(0.875 8.28107e-12 0)
(0.875 4.77554e-12 0)
(0.875 2.82185e-12 0)
(0.875 1.65564e-12 0)
(0.875 8.27331e-13 0)
(0.875 3.23418e-14 0)
(0.875 -1.00025e-12 0)
(0.875 -2.60627e-12 0)
(0.875 -5.35527e-12 0)
(0.875 -1.04199e-11 0)
(0.875 -2.01141e-11 0)
(0.875 -3.71512e-11 0)
(0.875 -7.69778e-11 0)
(0.875 -8.89823e-11 0)
(0.925 7.38338e-11 0)
(0.925 7.43436e-11 0)
(0.925 3.73216e-11 0)
(0.925 1.98074e-11 0)
(0.925 1.10604e-11 0)
(0.925 5.91629e-12 0)
(0.925 3.23402e-12 0)
(0.925 1.84312e-12 0)
(0.925 1.08668e-12 0)
(0.925 6.44184e-13 0)
(0.925 3.32114e-13 0)
(0.925 2.56964e-14 0)
(0.925 -3.88302e-13 0)
(0.925 -1.0399e-12 0)
(0.925 -2.15829e-12 0)
(0.925 -4.25982e-12 0)
(0.925 -8.52556e-12 0)
(0.925 -1.5988e-11 0)
(0.925 -3.84507e-11 0)
(0.925 -4.85166e-11 0)
(0.975 2.28076e-11 0)
(0.975 2.13195e-11 0)
(0.975 8.50395e-12 0)
(0.975 3.95159e-12 0)
(0.975 2.1215e-12 0)
(0.975 1.05707e-12 0)
(0.975 5.54187e-13 0)
(0.975 3.12591e-13 0)
(0.975 1.84436e-13 0)
(0.975 1.104e-13 0)
(0.975 5.84141e-14 0)
(0.975 3.8416e-15 0)
(0.975 -7.91313e-14 0)
(0.975 -2.12674e-13 0)
(0.975 -4.30649e-13 0)
(0.975 -8.46186e-13 0)
(0.975 -1.78153e-12 0)
(0.975 -3.34497e-12 0)
(0.975 -1.00097e-11 0)
(0.975 -1.39962e-11 0)
)
;

boundaryField
{
    top
    {
        type            fixedValue;
        value           uniform (1 0 0);
    }
    bottom
    {
        type            fixedValue;
        value           uniform (0 0 0);
    }
    inlet
    {
        type            zeroGradient;
    }
    outlet
    {
        type            zeroGradient;
    }
    frontAndBack
    {
        type            empty;
    }
}


// ************************************************************************* //
