/*--------------------------------*- C++ -*----------------------------------*\
  =========                 |
  \\      /  F ield         | OpenFOAM: The Open Source CFD Toolbox
   \\    /   O peration     | Website:  https://openfoam.org
    \\  /    A nd           | Version:  9
     \\/     M anipulation  |
\*---------------------------------------------------------------------------*/
FoamFile
{
    format      ascii;
    class       volScalarField;
    location    "2";
    object      p;
}
// * * * * * * * * * * * * * * * * * * * * * * * * * * * * * * * * * * * * * //

dimensions      [0 2 -2 0 0 0 0];

internalField   nonuniform List<scalar> 
400
(
3.35381e-08
5.55828e-08
5.37474e-08
5.11237e-08
4.68158e-08
4.17138e-08
3.63988e-08
3.09913e-08
2.55815e-08
2.02148e-08
1.4867e-08
9.50359e-09
4.11233e-09
-1.30443e-09
-6.74113e-09
-1.22081e-08
-1.75649e-08
-2.24258e-08
-2.85639e-08
-1.80457e-08
3.18067e-08
5.29537e-08
5.09548e-08
4.94501e-08
4.58004e-08
4.11013e-08
3.60443e-08
3.07931e-08
2.54751e-08
2.01616e-08
1.48444e-08
9.50066e-09
4.12752e-09
-1.26189e-09
-6.64175e-09
-1.19937e-08
-1.71103e-08
-2.13829e-08
-2.78833e-08
-1.7583e-08
3.21588e-08
5.31855e-08
4.93962e-08
4.8375e-08
4.50779e-08
4.06238e-08
3.57499e-08
3.06187e-08
2.53744e-08
2.01045e-08
1.48139e-08
9.48883e-09
4.13275e-09
-1.23415e-09
-6.57373e-09
-1.18607e-08
-1.688e-08
-2.08787e-08
-2.87813e-08
-1.82301e-08
3.33935e-08
5.55038e-08
4.90682e-08
4.79211e-08
4.46872e-08
4.0314e-08
3.55364e-08
3.04788e-08
2.52837e-08
2.00451e-08
1.47758e-08
9.46689e-09
4.12476e-09
-1.22784e-09
-6.54961e-09
-1.18273e-08
-1.68815e-08
-2.09155e-08
-3.05973e-08
-1.92313e-08
3.47459e-08
5.87154e-08
4.93766e-08
4.78176e-08
4.4496e-08
4.01088e-08
3.53733e-08
3.03587e-08
2.51965e-08
1.99821e-08
1.47311e-08
9.43659e-09
4.10519e-09
-1.24011e-09
-6.56055e-09
-1.18626e-08
-1.70221e-08
-2.1213e-08
-3.26285e-08
-2.01827e-08
3.59945e-08
6.21858e-08
5.00011e-08
4.79042e-08
4.44242e-08
3.99667e-08
3.52388e-08
3.02485e-08
2.511e-08
1.99157e-08
1.46813e-08
9.39961e-09
4.07625e-09
-1.26676e-09
-6.59559e-09
-1.19383e-08
-1.7229e-08
-2.16019e-08
-3.44916e-08
-2.09568e-08
3.7096e-08
6.55636e-08
5.07583e-08
4.80826e-08
4.44164e-08
3.98597e-08
3.51187e-08
3.01423e-08
2.5023e-08
1.98468e-08
1.46281e-08
9.35795e-09
4.0407e-09
-1.30272e-09
-6.64385e-09
-1.20293e-08
-1.74495e-08
-2.19793e-08
-3.59913e-08
-2.15312e-08
3.80067e-08
6.85607e-08
5.14997e-08
4.82668e-08
4.44224e-08
3.97622e-08
3.50007e-08
3.00349e-08
2.49342e-08
1.97762e-08
1.45729e-08
9.31392e-09
4.00215e-09
-1.34172e-09
-6.69312e-09
-1.21113e-08
-1.76359e-08
-2.22682e-08
-3.6992e-08
-2.18844e-08
3.86991e-08
7.09532e-08
5.21051e-08
4.839e-08
4.44028e-08
3.96552e-08
3.48766e-08
2.99235e-08
2.48434e-08
1.97049e-08
1.45176e-08
9.27019e-09
3.96472e-09
-1.37692e-09
-6.73152e-09
-1.21628e-08
-1.77496e-08
-2.2412e-08
-3.74169e-08
-2.20106e-08
3.91526e-08
7.25768e-08
5.24922e-08
4.84097e-08
4.43344e-08
3.95291e-08
3.47439e-08
2.98084e-08
2.47519e-08
1.96347e-08
1.44643e-08
9.22943e-09
3.93235e-09
-1.40223e-09
-6.74918e-09
-1.2168e-08
-1.77641e-08
-2.23779e-08
-3.72374e-08
-2.19114e-08
3.93526e-08
7.33253e-08
5.26149e-08
4.83091e-08
4.42109e-08
3.93852e-08
3.46066e-08
2.96939e-08
2.46634e-08
1.95683e-08
1.44153e-08
9.19402e-09
3.90813e-09
-1.41326e-09
-6.73983e-09
-1.21184e-08
-1.76669e-08
-2.21558e-08
-3.64676e-08
-2.15963e-08
3.92857e-08
7.31464e-08
5.24633e-08
4.80963e-08
4.4042e-08
3.9234e-08
3.4474e-08
2.95871e-08
2.45826e-08
1.95088e-08
1.43726e-08
9.16567e-09
3.89378e-09
-1.40822e-09
-6.70186e-09
-1.20137e-08
-1.74596e-08
-2.17563e-08
-3.51574e-08
-2.108e-08
3.89399e-08
7.20453e-08
5.2065e-08
4.78024e-08
4.38516e-08
3.90937e-08
3.43598e-08
2.94972e-08
2.45154e-08
1.94597e-08
1.43383e-08
9.14527e-09
3.88934e-09
-1.3883e-09
-6.6389e-09
-1.18627e-08
-1.71589e-08
-2.12099e-08
-3.33895e-08
-2.03831e-08
3.83113e-08
7.00944e-08
5.14866e-08
4.74814e-08
4.36751e-08
3.89878e-08
3.4279e-08
2.9434e-08
2.44675e-08
1.94242e-08
1.43136e-08
9.13272e-09
3.89309e-09
-1.35783e-09
-6.55987e-09
-1.16831e-08
-1.67957e-08
-2.05669e-08
-3.1279e-08
-1.95333e-08
3.74016e-08
6.74412e-08
5.08387e-08
4.72052e-08
4.35564e-08
3.89409e-08
3.42463e-08
2.94056e-08
2.44437e-08
1.94045e-08
1.42991e-08
9.12696e-09
3.90173e-09
-1.32382e-09
-6.4783e-09
-1.15002e-08
-1.64142e-08
-1.98965e-08
-2.89731e-08
-1.85673e-08
3.62365e-08
6.43245e-08
5.02657e-08
4.70587e-08
4.35396e-08
3.89756e-08
3.4272e-08
2.94173e-08
2.44461e-08
1.94014e-08
1.42945e-08
9.12606e-09
3.91081e-09
-1.29508e-09
-6.41072e-09
-1.13447e-08
-1.60685e-08
-1.92825e-08
-2.66506e-08
-1.75329e-08
3.48354e-08
6.10725e-08
4.99549e-08
4.71264e-08
4.36659e-08
3.91067e-08
3.43609e-08
2.94696e-08
2.44742e-08
1.94139e-08
1.42983e-08
9.12753e-09
3.91534e-09
-1.28119e-09
-6.37475e-09
-1.125e-08
-1.58203e-08
-1.88265e-08
-2.45222e-08
-1.64816e-08
3.34024e-08
5.83277e-08
5.02217e-08
4.75428e-08
4.3988e-08
3.93541e-08
3.45179e-08
2.95629e-08
2.45271e-08
1.94409e-08
1.43091e-08
9.12847e-09
3.90934e-09
-1.29367e-09
-6.39141e-09
-1.12569e-08
-1.57534e-08
-1.86914e-08
-2.29368e-08
-1.55542e-08
3.25901e-08
5.72925e-08
5.16498e-08
4.85297e-08
4.45987e-08
3.97506e-08
3.47541e-08
2.97002e-08
2.4606e-08
1.94833e-08
1.43271e-08
9.1275e-09
3.88852e-09
-1.34231e-09
-6.48224e-09
-1.14135e-08
-1.59792e-08
-1.9138e-08
-2.25106e-08
-1.51871e-08
3.35995e-08
5.90245e-08
5.42456e-08
5.00525e-08
4.54539e-08
4.02561e-08
3.50422e-08
2.9865e-08
2.47009e-08
1.95355e-08
1.43497e-08
9.1246e-09
3.85583e-09
-1.41982e-09
-6.63469e-09
-1.16996e-08
-1.6486e-08
-2.01576e-08
-2.36209e-08
-1.60329e-08
)
;

boundaryField
{
    top
    {
        type            zeroGradient;
    }
    bottom
    {
        type            zeroGradient;
    }
    inlet
    {
        type            fixedValue;
        value           uniform 0;
    }
    outlet
    {
        type            fixedValue;
        value           uniform 0;
    }
    frontAndBack
    {
        type            empty;
    }
}


// ************************************************************************* //
