/*--------------------------------*- C++ -*----------------------------------*\
  =========                 |
  \\      /  F ield         | OpenFOAM: The Open Source CFD Toolbox
   \\    /   O peration     | Website:  https://openfoam.org
    \\  /    A nd           | Version:  9
     \\/     M anipulation  |
\*---------------------------------------------------------------------------*/
FoamFile
{
    format      ascii;
    class       surfaceScalarField;
    location    "2";
    object      phi;
}
// * * * * * * * * * * * * * * * * * * * * * * * * * * * * * * * * * * * * * //

dimensions      [0 3 -1 0 0 0 0];

internalField   nonuniform List<scalar> 
760
(
1.24996e-06
-2.05409e-13
1.24996e-06
-1.70939e-13
1.24996e-06
-8.14287e-14
1.24996e-06
-4.63003e-14
1.24996e-06
-2.65775e-14
1.24996e-06
-1.46067e-14
1.24996e-06
-8.00487e-15
1.24996e-06
-4.19199e-15
1.24996e-06
-2.04665e-15
1.24996e-06
-9.32023e-16
1.24996e-06
-3.49903e-16
1.24996e-06
7.59792e-18
1.24996e-06
3.36819e-16
1.24996e-06
8.70471e-16
1.24996e-06
2.06291e-15
1.24996e-06
5.20906e-15
1.24996e-06
1.24219e-14
1.24996e-06
2.77849e-14
1.24996e-06
8.74929e-14
1.00996e-13
3.74989e-06
-4.94479e-13
3.74989e-06
-4.63369e-13
3.74989e-06
-2.64929e-13
3.74989e-06
-1.57673e-13
3.74989e-06
-9.30475e-14
3.74989e-06
-5.29446e-14
3.74989e-06
-2.95745e-14
3.74989e-06
-1.59238e-14
3.74989e-06
-8.10271e-15
3.74989e-06
-3.78183e-15
3.74989e-06
-1.41031e-15
3.74989e-06
1.70525e-17
3.74989e-06
1.25674e-15
3.74989e-06
3.20219e-15
3.74989e-06
7.45338e-15
3.74989e-06
1.77027e-14
3.74989e-06
4.05736e-14
3.74989e-06
8.71221e-14
3.74989e-06
2.12328e-13
2.24394e-13
6.24983e-06
-7.52082e-13
6.24983e-06
-7.54534e-13
6.24983e-06
-4.7964e-13
6.24983e-06
-2.97017e-13
6.24983e-06
-1.79984e-13
6.24983e-06
-1.04894e-13
6.24983e-06
-5.95306e-14
6.24983e-06
-3.25622e-14
6.24983e-06
-1.68865e-14
6.24983e-06
-8.03537e-15
6.24983e-06
-3.1048e-15
6.24983e-06
-1.71774e-16
6.24983e-06
2.26294e-15
6.24983e-06
5.92353e-15
6.24983e-06
1.37186e-14
6.24983e-06
3.16684e-14
6.24983e-06
7.03176e-14
6.24983e-06
1.4545e-13
6.24983e-06
3.0809e-13
3.0832e-13
8.74976e-06
-9.44967e-13
8.74976e-06
-9.84221e-13
8.74976e-06
-6.69926e-13
8.74976e-06
-4.29863e-13
8.74976e-06
-2.66777e-13
8.74976e-06
-1.58567e-13
8.74976e-06
-9.12292e-14
8.74976e-06
-5.04956e-14
8.74976e-06
-2.65044e-14
8.74976e-06
-1.27933e-14
8.74976e-06
-5.12516e-15
8.74976e-06
-6.54982e-16
8.74976e-06
2.83767e-15
8.74976e-06
7.80056e-15
8.74976e-06
1.81452e-14
8.74976e-06
4.13253e-14
8.74976e-06
8.99814e-14
8.74976e-06
1.79929e-13
8.74976e-06
3.51879e-13
3.41269e-13
1.12497e-05
-1.05344e-12
1.12497e-05
-1.1217e-12
1.12497e-05
-8.01462e-13
1.12497e-05
-5.29631e-13
1.12497e-05
-3.35674e-13
1.12497e-05
-2.02865e-13
1.12497e-05
-1.18086e-13
1.12497e-05
-6.5941e-14
1.12497e-05
-3.48769e-14
1.12497e-05
-1.69956e-14
1.12497e-05
-7.02968e-15
1.12497e-05
-1.41298e-15
1.12497e-05
2.59275e-15
1.12497e-05
7.84813e-15
1.12497e-05
1.86619e-14
1.12497e-05
4.2724e-14
1.12497e-05
9.26069e-14
1.12497e-05
1.8115e-13
1.12497e-05
3.37798e-13
3.20187e-13
1.37497e-05
-1.07227e-12
1.37497e-05
-1.15653e-12
1.37497e-05
-8.56202e-13
1.37497e-05
-5.79516e-13
1.37497e-05
-3.73931e-13
1.37497e-05
-2.29184e-13
1.37497e-05
-1.34678e-13
1.37497e-05
-7.5657e-14
1.37497e-05
-4.01542e-14
1.37497e-05
-1.96499e-14
1.37497e-05
-8.34976e-15
1.37497e-05
-2.32247e-15
1.37497e-05
1.36401e-15
1.37497e-05
5.56049e-15
1.37497e-05
1.4281e-14
1.37497e-05
3.42399e-14
1.37497e-05
7.62236e-14
1.37497e-05
1.4846e-13
1.37497e-05
2.71245e-13
2.50785e-13
1.62496e-05
-1.005e-12
1.62496e-05
-1.09079e-12
1.62496e-05
-8.29322e-13
1.62496e-05
-5.7211e-13
1.62496e-05
-3.74793e-13
1.62496e-05
-2.32404e-13
1.62496e-05
-1.37551e-13
1.62496e-05
-7.74756e-14
1.62496e-05
-4.10511e-14
1.62496e-05
-2.00306e-14
1.62496e-05
-8.69932e-15
1.62496e-05
-3.19673e-15
1.62496e-05
-7.73476e-16
1.62496e-05
9.76745e-16
1.62496e-05
5.1295e-15
1.62496e-05
1.64508e-14
1.62496e-05
4.26977e-14
1.62496e-05
8.71155e-14
1.62496e-05
1.62966e-13
1.42776e-13
1.87496e-05
-8.62517e-13
1.87496e-05
-9.36068e-13
1.87496e-05
-7.26246e-13
1.87496e-05
-5.08608e-13
1.87496e-05
-3.37556e-13
1.87496e-05
-2.1135e-13
1.87496e-05
-1.25656e-13
1.87496e-05
-7.06436e-14
1.87496e-05
-3.70781e-14
1.87496e-05
-1.78292e-14
1.87496e-05
-7.86727e-15
1.87496e-05
-3.84172e-15
1.87496e-05
-3.54389e-15
1.87496e-05
-5.38429e-15
1.87496e-05
-7.71312e-15
1.87496e-05
-8.38007e-15
1.87496e-05
-3.37476e-15
1.87496e-05
5.77466e-15
1.87496e-05
2.68672e-14
8.72661e-15
2.12496e-05
-6.60642e-13
2.12496e-05
-7.10512e-13
2.12496e-05
-5.60421e-13
2.12496e-05
-3.97447e-13
2.12496e-05
-2.67102e-13
2.12496e-05
-1.68692e-13
2.12496e-05
-1.00426e-13
2.12496e-05
-5.59253e-14
2.12496e-05
-2.86344e-14
2.12496e-05
-1.32276e-14
2.12496e-05
-5.87629e-15
2.12496e-05
-4.11145e-15
2.12496e-05
-6.54665e-15
2.12496e-05
-1.26612e-14
2.12496e-05
-2.25154e-14
2.12496e-05
-3.68953e-14
2.12496e-05
-5.58611e-14
2.12496e-05
-8.52094e-14
2.12496e-05
-1.22108e-13
-1.37784e-13
2.37496e-05
-4.19035e-13
2.37495e-05
-4.37099e-13
2.37495e-05
-3.5122e-13
2.37495e-05
-2.52783e-13
2.37495e-05
-1.72908e-13
2.37495e-05
-1.10411e-13
2.37495e-05
-6.54903e-14
2.37495e-05
-3.54638e-14
2.37495e-05
-1.69451e-14
2.37495e-05
-6.87839e-15
2.37495e-05
-2.99274e-15
2.37495e-05
-3.94827e-15
2.37495e-05
-9.34304e-15
2.37495e-05
-1.98263e-14
2.37495e-05
-3.72279e-14
2.37495e-05
-6.52682e-14
2.37495e-05
-1.08067e-13
2.37495e-05
-1.75161e-13
2.37495e-05
-2.69104e-13
-2.82987e-13
2.62496e-05
-1.59809e-13
2.62495e-05
-1.42038e-13
2.62495e-05
-1.22088e-13
2.62495e-05
-9.27286e-14
2.62495e-05
-6.77157e-14
2.62495e-05
-4.48663e-14
2.62495e-05
-2.60795e-14
2.62495e-05
-1.24156e-14
2.62495e-05
-3.84979e-15
2.62495e-05
2.06677e-16
2.62495e-05
3.16717e-16
2.62495e-05
-3.39681e-15
2.62495e-05
-1.15363e-14
2.62495e-05
-2.5861e-14
2.62495e-05
-4.98141e-14
2.62495e-05
-8.9753e-14
2.62495e-05
-1.53576e-13
2.62495e-05
-2.54064e-13
2.62495e-05
-4.00297e-13
-4.13835e-13
2.87496e-05
9.36924e-14
2.87496e-05
1.46656e-13
2.87496e-05
1.01342e-13
2.87496e-05
6.25875e-14
2.87496e-05
3.41319e-14
2.87496e-05
1.84394e-14
2.87496e-05
1.18254e-14
2.87496e-05
9.59661e-15
2.87496e-05
8.53111e-15
2.87496e-05
6.84721e-15
2.87496e-05
3.47656e-15
2.87496e-05
-2.58872e-15
2.87496e-05
-1.28311e-14
2.87496e-05
-2.99103e-14
2.87496e-05
-5.85366e-14
2.87496e-05
-1.07154e-13
2.87496e-05
-1.869e-13
2.87496e-05
-3.13325e-13
2.87496e-05
-5.03561e-13
-5.18646e-13
3.12496e-05
3.18084e-13
3.12496e-05
4.00613e-13
3.12496e-05
2.93293e-13
3.12496e-05
1.93202e-13
3.12496e-05
1.1861e-13
3.12496e-05
7.03186e-14
3.12496e-05
4.25069e-14
3.12496e-05
2.71405e-14
3.12496e-05
1.82032e-14
3.12496e-05
1.19305e-14
3.12496e-05
5.92581e-15
3.12496e-05
-1.7029e-15
3.12496e-05
-1.30685e-14
3.12496e-05
-3.14025e-14
3.12496e-05
-6.21875e-14
3.12496e-05
-1.15195e-13
3.12496e-05
-2.0401e-13
3.12496e-05
-3.46383e-13
3.12496e-05
-5.69023e-13
-5.87688e-13
3.37496e-05
4.91514e-13
3.37496e-05
5.92883e-13
3.37496e-05
4.30168e-13
3.37496e-05
2.8184e-13
3.37496e-05
1.74102e-13
3.37496e-05
1.03467e-13
3.37496e-05
6.15602e-14
3.37496e-05
3.76499e-14
3.37496e-05
2.37074e-14
3.37496e-05
1.46528e-14
3.37496e-05
7.24726e-15
3.37496e-05
-9.12818e-16
3.37496e-05
-1.22372e-14
3.37496e-05
-3.01278e-14
3.37496e-05
-6.02538e-14
3.37496e-05
-1.12804e-13
3.37496e-05
-2.02756e-13
3.37496e-05
-3.49237e-13
3.37496e-05
-5.89609e-13
-6.13741e-13
3.62497e-05
5.9473e-13
3.62497e-05
6.9987e-13
3.62497e-05
4.93593e-13
3.62497e-05
3.16658e-13
3.62497e-05
1.93609e-13
3.62497e-05
1.13925e-13
3.62497e-05
6.68453e-14
3.62497e-05
3.99896e-14
3.62497e-05
2.44572e-14
3.62497e-05
1.47099e-14
3.62497e-05
7.27332e-15
3.62497e-05
-3.37672e-16
3.62497e-05
-1.04684e-14
3.62497e-05
-2.62787e-14
3.62497e-05
-5.30172e-14
3.62497e-05
-1.00308e-13
3.62497e-05
-1.83215e-13
3.62497e-05
-3.20996e-13
3.62497e-05
-5.616e-13
-5.9256e-13
3.87497e-05
6.14124e-13
3.87497e-05
7.04938e-13
3.87497e-05
4.74024e-13
3.87497e-05
2.94451e-13
3.87497e-05
1.76678e-13
3.87497e-05
1.02278e-13
3.87497e-05
5.91041e-14
3.87497e-05
3.47981e-14
3.87497e-05
2.09119e-14
3.87497e-05
1.23935e-14
3.87497e-05
6.13756e-15
3.87497e-05
-1.29885e-17
3.87497e-05
-8.02062e-15
3.87497e-05
-2.04493e-14
3.87497e-05
-4.1587e-14
3.87497e-05
-7.95426e-14
3.87497e-05
-1.48e-13
3.87497e-05
-2.64491e-13
3.87497e-05
-4.85677e-13
-5.23797e-13
4.12498e-05
5.42737e-13
4.12498e-05
6.02108e-13
4.12498e-05
3.76146e-13
4.12498e-05
2.23456e-13
4.12498e-05
1.30909e-13
4.12498e-05
7.41056e-14
4.12498e-05
4.21026e-14
4.12498e-05
2.44564e-14
4.12498e-05
1.4531e-14
4.12498e-05
8.54921e-15
4.12498e-05
4.25419e-15
4.12498e-05
1.07161e-16
4.12498e-05
-5.26247e-15
4.12498e-05
-1.35996e-14
4.12498e-05
-2.78579e-14
4.12498e-05
-5.38813e-14
4.12498e-05
-1.02485e-13
4.12498e-05
-1.87147e-13
4.12498e-05
-3.68088e-13
-4.11788e-13
4.37498e-05
3.88389e-13
4.37498e-05
4.06468e-13
4.37498e-05
2.246e-13
4.37498e-05
1.26071e-13
4.37498e-05
7.19015e-14
4.37498e-05
3.95294e-14
4.37498e-05
2.20109e-14
4.37498e-05
1.26457e-14
4.37498e-05
7.466e-15
4.37498e-05
4.39554e-15
4.37498e-05
2.21821e-15
4.37498e-05
1.12078e-16
4.37498e-05
-2.65529e-15
4.37498e-05
-6.97562e-15
4.37498e-05
-1.43882e-14
4.37498e-05
-2.81355e-14
4.37498e-05
-5.50378e-14
4.37498e-05
-1.02188e-13
4.37498e-05
-2.23977e-13
-2.68004e-13
4.62499e-05
1.71639e-13
4.62499e-05
1.64566e-13
4.62499e-05
7.34246e-14
4.62499e-05
3.77656e-14
4.62499e-05
2.11504e-14
4.62499e-05
1.10918e-14
4.62499e-05
6.00867e-15
4.62499e-05
3.42375e-15
4.62499e-05
2.02619e-15
4.62499e-05
1.21493e-15
4.62499e-05
6.46513e-16
4.62499e-05
7.69929e-17
4.62499e-05
-7.23984e-16
4.62499e-05
-1.99159e-15
4.62499e-05
-4.13814e-15
4.62499e-05
-8.18122e-15
4.62499e-05
-1.66805e-14
4.62499e-05
-3.08563e-14
4.62499e-05
-8.19129e-14
-1.10935e-13
4.875e-05
4.875e-05
4.875e-05
4.875e-05
4.875e-05
4.875e-05
4.875e-05
4.875e-05
4.875e-05
4.875e-05
4.875e-05
4.875e-05
4.875e-05
4.875e-05
4.875e-05
4.875e-05
4.875e-05
4.875e-05
4.875e-05
)
;

boundaryField
{
    top
    {
        type            calculated;
        value           uniform 0;
    }
    bottom
    {
        type            calculated;
        value           uniform 0;
    }
    inlet
    {
        type            calculated;
        value           nonuniform List<scalar> 
20
(
-1.24996e-06
-3.74989e-06
-6.24983e-06
-8.74976e-06
-1.12497e-05
-1.37497e-05
-1.62496e-05
-1.87496e-05
-2.12496e-05
-2.37496e-05
-2.62496e-05
-2.87496e-05
-3.12496e-05
-3.37496e-05
-3.62497e-05
-3.87497e-05
-4.12498e-05
-4.37498e-05
-4.62499e-05
-4.875e-05
)
;
    }
    outlet
    {
        type            calculated;
        value           nonuniform List<scalar> 
20
(
1.24996e-06
3.74989e-06
6.24983e-06
8.74976e-06
1.12497e-05
1.37497e-05
1.62496e-05
1.87496e-05
2.12496e-05
2.37495e-05
2.62495e-05
2.87496e-05
3.12496e-05
3.37496e-05
3.62497e-05
3.87497e-05
4.12498e-05
4.37498e-05
4.62499e-05
4.875e-05
)
;
    }
    frontAndBack
    {
        type            empty;
        value           nonuniform List<scalar> 0();
    }
}


// ************************************************************************* //
