/*--------------------------------*- C++ -*----------------------------------*\
  =========                 |
  \\      /  F ield         | OpenFOAM: The Open Source CFD Toolbox
   \\    /   O peration     | Website:  https://openfoam.org
    \\  /    A nd           | Version:  9
     \\/     M anipulation  |
\*---------------------------------------------------------------------------*/
FoamFile
{
    format      ascii;
    class       volVectorField;
    location    "2";
    object      U;
}
// * * * * * * * * * * * * * * * * * * * * * * * * * * * * * * * * * * * * * //

dimensions      [0 1 -1 0 0 0 0];

internalField   nonuniform List<vector> 
400
(
(0.0249993 -1.00511e-09 0)
(0.0249993 -8.03845e-10 0)
(0.0249993 -3.37587e-10 0)
(0.0249993 -1.79799e-10 0)
(0.0249993 -9.91377e-11 0)
(0.0249993 -5.24977e-11 0)
(0.0249993 -2.8282e-11 0)
(0.0249993 -1.41409e-11 0)
(0.0249993 -6.36862e-12 0)
(0.0249993 -2.71792e-12 0)
(0.0249993 -9.84099e-13 0)
(0.0249993 1.41591e-13 0)
(0.0249993 1.31009e-12 0)
(0.0249993 3.29578e-12 0)
(0.0249993 7.86348e-12 0)
(0.0249993 2.09254e-11 0)
(0.0249993 5.22775e-11 0)
(0.0249993 1.24782e-10 0)
(0.0249993 4.40964e-10 0)
(0.0249993 5.17125e-10 0)
(0.0749979 -3.46106e-09 0)
(0.0749979 -3.07683e-09 0)
(0.0749979 -1.60601e-09 0)
(0.0749979 -9.21767e-10 0)
(0.0749979 -5.32311e-10 0)
(0.0749979 -2.95912e-10 0)
(0.0749979 -1.62677e-10 0)
(0.0749979 -8.60361e-11 0)
(0.0749979 -4.26668e-11 0)
(0.0749979 -1.9368e-11 0)
(0.0749979 -6.8954e-12 0)
(0.0749979 6.49221e-13 0)
(0.0749979 7.45114e-12 0)
(0.0749979 1.85283e-11 0)
(0.0749979 4.33734e-11 0)
(0.0749979 1.06102e-10 0)
(0.0749979 2.49499e-10 0)
(0.0749979 5.55322e-10 0)
(0.0749979 1.50925e-09 0)
(0.0749979 1.65689e-09 0)
(0.124997 -6.29467e-09 0)
(0.124997 -6.113e-09 0)
(0.124997 -3.69223e-09 0)
(0.124997 -2.23399e-09 0)
(0.124997 -1.33255e-09 0)
(0.124997 -7.66266e-10 0)
(0.124997 -4.30919e-10 0)
(0.124997 -2.33528e-10 0)
(0.124997 -1.19831e-10 0)
(0.124997 -5.64176e-11 0)
(0.124997 -2.13244e-11 0)
(0.124997 -1.85967e-13 0)
(0.124997 1.80081e-11 0)
(0.124997 4.61767e-11 0)
(0.124997 1.06951e-10 0)
(0.124997 2.49786e-10 0)
(0.124997 5.62719e-10 0)
(0.124997 1.18734e-09 0)
(0.124997 2.67127e-09 0)
(0.124997 2.74736e-09 0)
(0.174995 -8.6612e-09 0)
(0.174995 -8.85817e-09 0)
(0.174995 -5.84106e-09 0)
(0.174995 -3.6792e-09 0)
(0.174995 -2.25385e-09 0)
(0.174995 -1.32528e-09 0)
(0.174995 -7.56631e-10 0)
(0.174995 -4.16229e-10 0)
(0.174995 -2.17248e-10 0)
(0.174995 -1.04152e-10 0)
(0.174995 -4.08884e-11 0)
(0.174995 -3.42486e-12 0)
(0.174995 2.70878e-11 0)
(0.174995 7.20107e-11 0)
(0.174995 1.66536e-10 0)
(0.174995 3.8049e-10 0)
(0.174995 8.34346e-10 0)
(0.174995 1.69361e-09 0)
(0.174995 3.42018e-09 0)
(0.174995 3.37441e-09 0)
(0.224994 -1.02132e-08 0)
(0.224994 -1.07626e-08 0)
(0.224994 -7.52532e-09 0)
(0.224994 -4.90198e-09 0)
(0.224994 -3.07368e-09 0)
(0.224994 -1.84189e-09 0)
(0.224994 -1.06576e-09 0)
(0.224994 -5.92688e-10 0)
(0.224994 -3.12548e-10 0)
(0.224994 -1.51747e-10 0)
(0.224994 -6.17563e-11 0)
(0.224994 -9.84403e-12 0)
(0.224994 2.94443e-11 0)
(0.224994 8.35774e-11 0)
(0.224994 1.95269e-10 0)
(0.224994 4.4317e-10 0)
(0.224994 9.57993e-10 0)
(0.224994 1.88801e-09 0)
(0.224994 3.579e-09 0)
(0.224994 3.43695e-09 0)
(0.274993 -1.08507e-08 0)
(0.274993 -1.16362e-08 0)
(0.274993 -8.48552e-09 0)
(0.274993 -5.6808e-09 0)
(0.274993 -3.63424e-09 0)
(0.274993 -2.21262e-09 0)
(0.274993 -1.29454e-09 0)
(0.274993 -7.25545e-10 0)
(0.274993 -3.8487e-10 0)
(0.274993 -1.88259e-10 0)
(0.274993 -7.89998e-11 0)
(0.274993 -1.86139e-11 0)
(0.274993 2.21337e-11 0)
(0.274993 7.28782e-11 0)
(0.274993 1.76881e-10 0)
(0.274993 4.08794e-10 0)
(0.274993 8.88864e-10 0)
(0.274993 1.72468e-09 0)
(0.274993 3.1574e-09 0)
(0.274993 2.96439e-09 0)
(0.324992 -1.05896e-08 0)
(0.324992 -1.14654e-08 0)
(0.324992 -8.62364e-09 0)
(0.324992 -5.9009e-09 0)
(0.324992 -3.83936e-09 0)
(0.324992 -2.36848e-09 0)
(0.324992 -1.39778e-09 0)
(0.324992 -7.87078e-10 0)
(0.324992 -4.18088e-10 0)
(0.324992 -2.04805e-10 0)
(0.324992 -8.81538e-11 0)
(0.324992 -2.80686e-11 0)
(0.324992 4.78434e-12 0)
(0.324992 3.7702e-11 0)
(0.324992 1.07516e-10 0)
(0.324992 2.73578e-10 0)
(0.324992 6.30811e-10 0)
(0.324992 1.23679e-09 0)
(0.324992 2.2539e-09 0)
(0.324992 2.04902e-09 0)
(0.374992 -9.50723e-09 0)
(0.374992 -1.03279e-08 0)
(0.374992 -7.95075e-09 0)
(0.374992 -5.53459e-09 0)
(0.374992 -3.65254e-09 0)
(0.374992 -2.27769e-09 0)
(0.374992 -1.3524e-09 0)
(0.374992 -7.6214e-10 0)
(0.374992 -4.02909e-10 0)
(0.374992 -1.95913e-10 0)
(0.374992 -8.60153e-11 0)
(0.374992 -3.61325e-11 0)
(0.374992 -2.06645e-11 0)
(0.374992 -1.88474e-11 0)
(0.374992 -6.11566e-12 0)
(0.374992 5.32822e-11 0)
(0.374992 2.1929e-10 0)
(0.374992 4.99844e-10 0)
(0.374992 9.97718e-10 0)
(0.374992 8.05922e-10 0)
(0.424991 -7.74069e-09 0)
(0.424991 -8.37705e-09 0)
(0.424991 -6.5659e-09 0)
(0.424991 -4.63332e-09 0)
(0.424991 -3.09626e-09 0)
(0.424991 -1.94838e-09 0)
(0.424991 -1.16048e-09 0)
(0.424991 -6.5078e-10 0)
(0.424991 -3.38804e-10 0)
(0.424991 -1.60855e-10 0)
(0.424991 -7.15398e-11 0)
(0.424991 -4.09711e-11 0)
(0.424991 -5.06079e-11 0)
(0.424991 -8.94503e-11 0)
(0.424991 -1.49135e-10 0)
(0.424991 -2.22469e-10 0)
(0.424991 -2.89435e-10 0)
(0.424991 -3.87608e-10 0)
(0.424991 -4.63238e-10 0)
(0.424991 -6.31168e-10 0)
(0.474991 -5.4704e-09 0)
(0.474991 -5.82253e-09 0)
(0.474991 -4.6379e-09 0)
(0.474991 -3.31396e-09 0)
(0.474991 -2.24514e-09 0)
(0.474991 -1.42558e-09 0)
(0.474991 -8.48425e-10 0)
(0.474991 -4.68139e-10 0)
(0.474991 -2.34222e-10 0)
(0.474991 -1.03959e-10 0)
(0.474991 -4.62095e-11 0)
(0.474991 -4.14946e-11 0)
(0.474991 -8.06351e-11 0)
(0.474991 -1.64212e-10 0)
(0.474991 -3.01801e-10 0)
(0.474991 -5.16296e-10 0)
(0.474991 -8.2904e-10 0)
(0.474991 -1.31761e-09 0)
(0.474991 -1.9775e-09 0)
(0.474991 -2.12341e-09 0)
(0.524991 -2.90872e-09 0)
(0.524991 -2.91423e-09 0)
(0.524991 -2.3855e-09 0)
(0.524991 -1.74249e-09 0)
(0.524991 -1.214e-09 0)
(0.524991 -7.83702e-10 0)
(0.524991 -4.62329e-10 0)
(0.524991 -2.41861e-10 0)
(0.524991 -1.05174e-10 0)
(0.524991 -3.39307e-11 0)
(0.524991 -1.38631e-11 0)
(0.524991 -3.76441e-11 0)
(0.524991 -1.06399e-10 0)
(0.524991 -2.32495e-10 0)
(0.524991 -4.4292e-10 0)
(0.524991 -7.89084e-10 0)
(0.524991 -1.33213e-09 0)
(0.524991 -2.18455e-09 0)
(0.524991 -3.39957e-09 0)
(0.524991 -3.53468e-09 0)
(0.574991 -2.86005e-10 0)
(0.574991 7.2962e-11 0)
(0.574991 -5.90064e-11 0)
(0.574991 -1.15212e-10 0)
(0.574991 -1.42718e-10 0)
(0.574991 -1.15449e-10 0)
(0.574991 -6.06103e-11 0)
(0.574991 -7.37288e-12 0)
(0.574991 2.75936e-11 0)
(0.574991 3.77207e-11 0)
(0.574991 2.00077e-11 0)
(0.574991 -3.03802e-11 0)
(0.574991 -1.24331e-10 0)
(0.574991 -2.84602e-10 0)
(0.574991 -5.52997e-10 0)
(0.574991 -1.0051e-09 0)
(0.574991 -1.73774e-09 0)
(0.574991 -2.89366e-09 0)
(0.574991 -4.59808e-09 0)
(0.574991 -4.73977e-09 0)
(0.624992 2.16038e-09 0)
(0.624992 2.85291e-09 0)
(0.624992 2.07914e-09 0)
(0.624992 1.36156e-09 0)
(0.624992 8.21815e-10 0)
(0.624992 4.81893e-10 0)
(0.624992 2.95596e-10 0)
(0.624992 1.98333e-10 0)
(0.624992 1.42451e-10 0)
(0.624992 9.89077e-11 0)
(0.624992 4.93876e-11 0)
(0.624992 -2.13851e-11 0)
(0.624992 -1.32118e-10 0)
(0.624992 -3.13172e-10 0)
(0.624992 -6.16839e-10 0)
(0.624992 -1.13621e-09 0)
(0.624992 -1.99716e-09 0)
(0.624992 -3.3678e-09 0)
(0.624992 -5.46159e-09 0)
(0.624992 -5.63009e-09 0)
(0.674992 4.20117e-09 0)
(0.674992 5.14456e-09 0)
(0.674992 3.77564e-09 0)
(0.674992 2.49525e-09 0)
(0.674992 1.546e-09 0)
(0.674992 9.21995e-10 0)
(0.674992 5.53087e-10 0)
(0.674992 3.43646e-10 0)
(0.674992 2.21149e-10 0)
(0.674992 1.39478e-10 0)
(0.674992 6.90707e-11 0)
(0.674992 -1.25654e-11 0)
(0.674992 -1.2892e-10 0)
(0.674992 -3.14174e-10 0)
(0.674992 -6.25554e-10 0)
(0.674992 -1.16514e-09 0)
(0.674992 -2.07861e-09 0)
(0.674992 -3.55292e-09 0)
(0.674992 -5.90412e-09 0)
(0.674992 -6.1197e-09 0)
(0.724993 5.62622e-09 0)
(0.724993 6.68916e-09 0)
(0.724993 4.81324e-09 0)
(0.724993 3.13308e-09 0)
(0.724993 1.93159e-09 0)
(0.724993 1.1451e-09 0)
(0.724993 6.77069e-10 0)
(0.724993 4.08841e-10 0)
(0.724993 2.52771e-10 0)
(0.724993 1.535e-10 0)
(0.724993 7.59159e-11 0)
(0.724993 -5.49839e-12 0)
(0.724993 -1.15379e-10 0)
(0.724993 -2.875e-10 0)
(0.724993 -5.77866e-10 0)
(0.724993 -1.08787e-09 0)
(0.724993 -1.97106e-09 0)
(0.724993 -3.42339e-09 0)
(0.724993 -5.87012e-09 0)
(0.724993 -6.14997e-09 0)
(0.774994 6.26619e-09 0)
(0.774994 7.27535e-09 0)
(0.774994 5.03983e-09 0)
(0.774994 3.1916e-09 0)
(0.774994 1.93648e-09 0)
(0.774994 1.1319e-09 0)
(0.774994 6.59352e-10 0)
(0.774994 3.90892e-10 0)
(0.774994 2.36428e-10 0)
(0.774994 1.40792e-10 0)
(0.774994 6.96845e-11 0)
(0.774994 -1.0065e-12 0)
(0.774994 -9.34864e-11 0)
(0.774994 -2.37112e-10 0)
(0.774994 -4.80711e-10 0)
(0.774994 -9.1495e-10 0)
(0.774994 -1.68707e-09 0)
(0.774994 -2.98635e-09 0)
(0.774994 -5.34077e-09 0)
(0.774994 -5.69571e-09 0)
(0.824995 5.99252e-09 0)
(0.824995 6.75901e-09 0)
(0.824995 4.40903e-09 0)
(0.824995 2.68394e-09 0)
(0.824995 1.59179e-09 0)
(0.824995 9.11687e-10 0)
(0.824995 5.22256e-10 0)
(0.824995 3.05039e-10 0)
(0.824995 1.81908e-10 0)
(0.824995 1.07191e-10 0)
(0.824995 5.32195e-11 0)
(0.824995 1.03366e-12 0)
(0.824995 -6.63281e-11 0)
(0.824995 -1.70718e-10 0)
(0.824995 -3.48922e-10 0)
(0.824995 -6.71818e-10 0)
(0.824995 -1.26452e-09 0)
(0.824995 -2.28714e-09 0)
(0.824995 -4.33778e-09 0)
(0.824995 -4.76523e-09 0)
(0.874997 4.78589e-09 0)
(0.874997 5.16281e-09 0)
(0.874997 3.05544e-09 0)
(0.874997 1.76295e-09 0)
(0.874997 1.01709e-09 0)
(0.874997 5.67134e-10 0)
(0.874997 3.18666e-10 0)
(0.874997 1.83767e-10 0)
(0.874997 1.08581e-10 0)
(0.874997 6.37098e-11 0)
(0.874997 3.18422e-11 0)
(0.874997 1.24876e-12 0)
(0.874997 -3.84901e-11 0)
(0.874997 -1.00293e-10 0)
(0.874997 -2.06076e-10 0)
(0.874997 -4.00972e-10 0)
(0.874997 -7.74026e-10 0)
(0.874997 -1.42965e-09 0)
(0.874997 -2.96226e-09 0)
(0.874997 -3.42423e-09 0)
(0.924998 2.8412e-09 0)
(0.924998 2.86075e-09 0)
(0.924998 1.43592e-09 0)
(0.924998 7.61917e-10 0)
(0.924998 4.25374e-10 0)
(0.924998 2.27463e-10 0)
(0.924998 1.24299e-10 0)
(0.924998 7.08221e-11 0)
(0.924998 4.17466e-11 0)
(0.924998 2.47494e-11 0)
(0.924998 1.27713e-11 0)
(0.924998 9.93342e-13 0)
(0.924998 -1.49114e-11 0)
(0.924998 -3.99499e-11 0)
(0.924998 -8.29456e-11 0)
(0.924998 -1.63768e-10 0)
(0.924998 -3.27884e-10 0)
(0.924998 -6.15003e-10 0)
(0.924998 -1.47951e-09 0)
(0.924998 -1.86696e-09 0)
(0.974999 8.77624e-10 0)
(0.974999 8.20304e-10 0)
(0.974999 3.27001e-10 0)
(0.974999 1.51799e-10 0)
(0.974999 8.14228e-11 0)
(0.974999 4.04961e-11 0)
(0.974999 2.11888e-11 0)
(0.974999 1.19352e-11 0)
(0.974999 7.03746e-12 0)
(0.974999 4.2144e-12 0)
(0.974999 2.2372e-12 0)
(0.974999 1.50075e-13 0)
(0.974999 -3.01867e-12 0)
(0.974999 -8.12561e-12 0)
(0.974999 -1.64758e-11 0)
(0.974999 -3.2422e-11 0)
(0.974999 -6.83819e-11 0)
(0.974999 -1.28498e-10 0)
(0.974999 -3.85056e-10 0)
(0.974999 -5.38547e-10 0)
)
;

boundaryField
{
    top
    {
        type            fixedValue;
        value           uniform (1 0 0);
    }
    bottom
    {
        type            fixedValue;
        value           uniform (0 0 0);
    }
    inlet
    {
        type            zeroGradient;
    }
    outlet
    {
        type            zeroGradient;
    }
    frontAndBack
    {
        type            empty;
    }
}


// ************************************************************************* //
