/*--------------------------------*- C++ -*----------------------------------*\
  =========                 |
  \\      /  F ield         | OpenFOAM: The Open Source CFD Toolbox
   \\    /   O peration     | Website:  https://openfoam.org
    \\  /    A nd           | Version:  9
     \\/     M anipulation  |
\*---------------------------------------------------------------------------*/
FoamFile
{
    format      ascii;
    class       volScalarField;
    location    "2.1";
    object      p;
}
// * * * * * * * * * * * * * * * * * * * * * * * * * * * * * * * * * * * * * //

dimensions      [0 2 -2 0 0 0 0];

internalField   nonuniform List<scalar> 
400
(
2.47419e-08
4.1005e-08
3.9651e-08
3.77154e-08
3.45373e-08
3.07734e-08
2.68524e-08
2.28632e-08
1.88722e-08
1.49131e-08
1.09678e-08
7.01111e-09
3.03384e-09
-9.62247e-10
-4.97304e-09
-9.00618e-09
-1.2958e-08
-1.65441e-08
-2.10723e-08
-1.33127e-08
2.34646e-08
3.90654e-08
3.75908e-08
3.64807e-08
3.37882e-08
3.03216e-08
2.65909e-08
2.2717e-08
1.87937e-08
1.48738e-08
1.09511e-08
7.00894e-09
3.04504e-09
-9.30875e-10
-4.89974e-09
-8.84805e-09
-1.26226e-08
-1.57747e-08
-2.05702e-08
-1.29714e-08
2.37244e-08
3.92364e-08
3.64409e-08
3.56876e-08
3.32552e-08
2.99693e-08
2.63737e-08
2.25883e-08
1.87194e-08
1.48317e-08
1.09287e-08
7.00022e-09
3.0489e-09
-9.1041e-10
-4.84956e-09
-8.74989e-09
-1.24528e-08
-1.54027e-08
-2.12327e-08
-1.34488e-08
2.46353e-08
4.09467e-08
3.61989e-08
3.53527e-08
3.2967e-08
2.97408e-08
2.62162e-08
2.24851e-08
1.86525e-08
1.47879e-08
1.09006e-08
6.98404e-09
3.04301e-09
-9.05749e-10
-4.83176e-09
-8.72523e-09
-1.24539e-08
-1.54298e-08
-2.25724e-08
-1.41874e-08
2.5633e-08
4.3316e-08
3.64265e-08
3.52764e-08
3.28259e-08
2.95894e-08
2.60959e-08
2.23965e-08
1.85882e-08
1.47414e-08
1.08676e-08
6.96168e-09
3.02857e-09
-9.14806e-10
-4.83984e-09
-8.7513e-09
-1.25576e-08
-1.56493e-08
-2.40709e-08
-1.48893e-08
2.65541e-08
4.58762e-08
3.68872e-08
3.53402e-08
3.2773e-08
2.94845e-08
2.59966e-08
2.23152e-08
1.85244e-08
1.46924e-08
1.08309e-08
6.93441e-09
3.00722e-09
-9.34465e-10
-4.86568e-09
-8.80714e-09
-1.27102e-08
-1.59362e-08
-2.54453e-08
-1.54603e-08
2.73667e-08
4.83681e-08
3.74458e-08
3.54718e-08
3.27672e-08
2.94056e-08
2.5908e-08
2.22368e-08
1.84602e-08
1.46416e-08
1.07916e-08
6.90367e-09
2.98099e-09
-9.60996e-10
-4.90129e-09
-8.87424e-09
-1.28729e-08
-1.62147e-08
-2.65517e-08
-1.58841e-08
2.80386e-08
5.05791e-08
3.79927e-08
3.56078e-08
3.27716e-08
2.93337e-08
2.5821e-08
2.21576e-08
1.83947e-08
1.45895e-08
1.07509e-08
6.87119e-09
2.95255e-09
-9.89762e-10
-4.93764e-09
-8.93473e-09
-1.30104e-08
-1.64278e-08
-2.72899e-08
-1.61447e-08
2.85494e-08
5.23441e-08
3.84394e-08
3.56986e-08
3.27572e-08
2.92547e-08
2.57294e-08
2.20754e-08
1.83277e-08
1.45369e-08
1.07101e-08
6.83892e-09
2.92494e-09
-1.01573e-09
-4.96596e-09
-8.97275e-09
-1.30943e-08
-1.65339e-08
-2.76034e-08
-1.62378e-08
2.8884e-08
5.35419e-08
3.87249e-08
3.57131e-08
3.27067e-08
2.91617e-08
2.56315e-08
2.19905e-08
1.82602e-08
1.44851e-08
1.06708e-08
6.80886e-09
2.90106e-09
-1.0344e-09
-4.97899e-09
-8.97661e-09
-1.3105e-08
-1.65087e-08
-2.74709e-08
-1.61646e-08
2.90315e-08
5.4094e-08
3.88154e-08
3.56389e-08
3.26156e-08
2.90555e-08
2.55302e-08
2.1906e-08
1.81949e-08
1.44361e-08
1.06346e-08
6.78273e-09
2.88319e-09
-1.04254e-09
-4.9721e-09
-8.93999e-09
-1.30332e-08
-1.63449e-08
-2.6903e-08
-1.59321e-08
2.89821e-08
5.39621e-08
3.87036e-08
3.54819e-08
3.2491e-08
2.8944e-08
2.54325e-08
2.18272e-08
1.81353e-08
1.43922e-08
1.06031e-08
6.76182e-09
2.8726e-09
-1.03882e-09
-4.94408e-09
-8.86277e-09
-1.28804e-08
-1.60501e-08
-2.59365e-08
-1.55513e-08
2.8727e-08
5.31498e-08
3.84097e-08
3.52651e-08
3.23505e-08
2.88405e-08
2.53482e-08
2.17609e-08
1.80857e-08
1.4356e-08
1.05778e-08
6.74677e-09
2.86933e-09
-1.02413e-09
-4.89763e-09
-8.75141e-09
-1.26586e-08
-1.5647e-08
-2.46322e-08
-1.50371e-08
2.82633e-08
5.17105e-08
3.79831e-08
3.50283e-08
3.22204e-08
2.87624e-08
2.52886e-08
2.17143e-08
1.80504e-08
1.43298e-08
1.05596e-08
6.73751e-09
2.8721e-09
-1.00165e-09
-4.83933e-09
-8.61888e-09
-1.23906e-08
-1.51727e-08
-2.30753e-08
-1.44102e-08
2.75922e-08
4.97532e-08
3.75051e-08
3.48246e-08
3.21327e-08
2.87278e-08
2.52644e-08
2.16934e-08
1.80328e-08
1.43153e-08
1.05489e-08
6.73326e-09
2.87847e-09
-9.76561e-10
-4.77916e-09
-8.48395e-09
-1.21091e-08
-1.46781e-08
-2.13741e-08
-1.36976e-08
2.67326e-08
4.7454e-08
3.70824e-08
3.47165e-08
3.21204e-08
2.87534e-08
2.52834e-08
2.1702e-08
1.80346e-08
1.4313e-08
1.05455e-08
6.7326e-09
2.88517e-09
-9.55354e-10
-4.7293e-09
-8.36925e-09
-1.18541e-08
-1.42252e-08
-1.96608e-08
-1.29345e-08
2.5699e-08
4.50548e-08
3.68531e-08
3.47665e-08
3.22135e-08
2.88501e-08
2.5349e-08
2.17406e-08
1.80554e-08
1.43222e-08
1.05483e-08
6.73368e-09
2.88851e-09
-9.45106e-10
-4.70277e-09
-8.29939e-09
-1.1671e-08
-1.38888e-08
-1.80906e-08
-1.21589e-08
2.46418e-08
4.30299e-08
3.70499e-08
3.50737e-08
3.24511e-08
2.90326e-08
2.54648e-08
2.18094e-08
1.80944e-08
1.43422e-08
1.05563e-08
6.73438e-09
2.88409e-09
-9.54314e-10
-4.71506e-09
-8.30443e-09
-1.16217e-08
-1.37891e-08
-1.6921e-08
-1.14747e-08
2.40426e-08
4.22662e-08
3.81035e-08
3.58017e-08
3.29017e-08
2.93251e-08
2.56391e-08
2.19107e-08
1.81526e-08
1.43734e-08
1.05695e-08
6.73366e-09
2.86872e-09
-9.90201e-10
-4.78207e-09
-8.41997e-09
-1.17882e-08
-1.41186e-08
-1.66067e-08
-1.12039e-08
2.47872e-08
4.3544e-08
4.00185e-08
3.69251e-08
3.35326e-08
2.96981e-08
2.58516e-08
2.20323e-08
1.82226e-08
1.44119e-08
1.05862e-08
6.73152e-09
2.84461e-09
-1.04737e-09
-4.89452e-09
-8.63105e-09
-1.21621e-08
-1.48707e-08
-1.74257e-08
-1.18279e-08
)
;

boundaryField
{
    top
    {
        type            zeroGradient;
    }
    bottom
    {
        type            zeroGradient;
    }
    inlet
    {
        type            fixedValue;
        value           uniform 0;
    }
    outlet
    {
        type            fixedValue;
        value           uniform 0;
    }
    frontAndBack
    {
        type            empty;
    }
}


// ************************************************************************* //
