/*--------------------------------*- C++ -*----------------------------------*\
  =========                 |
  \\      /  F ield         | OpenFOAM: The Open Source CFD Toolbox
   \\    /   O peration     | Website:  https://openfoam.org
    \\  /    A nd           | Version:  9
     \\/     M anipulation  |
\*---------------------------------------------------------------------------*/
FoamFile
{
    format      ascii;
    class       surfaceScalarField;
    location    "2.1";
    object      phi;
}
// * * * * * * * * * * * * * * * * * * * * * * * * * * * * * * * * * * * * * //

dimensions      [0 3 -1 0 0 0 0];

internalField   nonuniform List<scalar> 
760
(
1.24997e-06
-1.51536e-13
1.24997e-06
-1.26107e-13
1.24997e-06
-6.00722e-14
1.24997e-06
-3.4157e-14
1.24997e-06
-1.9607e-14
1.24997e-06
-1.07758e-14
1.24997e-06
-5.90543e-15
1.24997e-06
-3.09256e-15
1.24997e-06
-1.50988e-15
1.24997e-06
-6.8758e-16
1.24997e-06
-2.58135e-16
1.24997e-06
5.59544e-18
1.24997e-06
2.48471e-16
1.24997e-06
6.42162e-16
1.24997e-06
1.52185e-15
1.24997e-06
3.84285e-15
1.24997e-06
9.16393e-15
1.24997e-06
2.04976e-14
1.24997e-06
6.45457e-14
7.45076e-14
3.74992e-06
-3.6479e-13
3.74992e-06
-3.4184e-13
3.74992e-06
-1.95446e-13
3.74992e-06
-1.1632e-13
3.74992e-06
-6.86438e-14
3.74992e-06
-3.90588e-14
3.74992e-06
-2.1818e-14
3.74992e-06
-1.17475e-14
3.74992e-06
-5.97762e-15
3.74992e-06
-2.78998e-15
3.74992e-06
-1.04044e-15
3.74992e-06
1.25614e-17
3.74992e-06
9.27108e-16
3.74992e-06
2.36232e-15
3.74992e-06
5.49851e-15
3.74992e-06
1.30597e-14
3.74992e-06
2.99321e-14
3.74992e-06
6.4272e-14
3.74992e-06
1.5664e-13
1.65541e-13
6.24987e-06
-5.54831e-13
6.24987e-06
-5.5664e-13
6.24987e-06
-3.53843e-13
6.24987e-06
-2.19117e-13
6.24987e-06
-1.32779e-13
6.24987e-06
-7.73833e-14
6.24987e-06
-4.39174e-14
6.24987e-06
-2.40221e-14
6.24987e-06
-1.24577e-14
6.24987e-06
-5.92796e-15
6.24987e-06
-2.29053e-15
6.24987e-06
-1.26755e-16
6.24987e-06
1.66939e-15
6.24987e-06
4.3699e-15
6.24987e-06
1.01205e-14
6.24987e-06
2.33625e-14
6.24987e-06
5.18749e-14
6.24987e-06
1.07302e-13
6.24987e-06
2.27286e-13
2.27455e-13
8.74983e-06
-6.97128e-13
8.74983e-06
-7.26087e-13
8.74983e-06
-4.94223e-13
8.74983e-06
-3.17122e-13
8.74983e-06
-1.96809e-13
8.74983e-06
-1.16979e-13
8.74983e-06
-6.73025e-14
8.74983e-06
-3.72521e-14
8.74983e-06
-1.95531e-14
8.74983e-06
-9.43806e-15
8.74983e-06
-3.78103e-15
8.74983e-06
-4.83254e-16
8.74983e-06
2.09337e-15
8.74983e-06
5.7546e-15
8.74983e-06
1.33861e-14
8.74983e-06
3.04866e-14
8.74983e-06
6.63814e-14
8.74983e-06
1.32738e-13
8.74983e-06
2.5959e-13
2.51763e-13
1.12498e-05
-7.77153e-13
1.12498e-05
-8.27512e-13
1.12498e-05
-5.91261e-13
1.12498e-05
-3.90723e-13
1.12498e-05
-2.47636e-13
1.12498e-05
-1.49659e-13
1.12498e-05
-8.71156e-14
1.12498e-05
-4.86466e-14
1.12498e-05
-2.57297e-14
1.12498e-05
-1.25382e-14
1.12498e-05
-5.18607e-15
1.12498e-05
-1.04247e-15
1.12498e-05
1.91266e-15
1.12498e-05
5.78967e-15
1.12498e-05
1.37672e-14
1.12498e-05
3.15184e-14
1.12498e-05
6.83182e-14
1.12498e-05
1.33638e-13
1.12498e-05
2.49202e-13
2.3621e-13
1.37497e-05
-7.91041e-13
1.37497e-05
-8.53201e-13
1.37497e-05
-6.31644e-13
1.37497e-05
-4.27525e-13
1.37497e-05
-2.7586e-13
1.37497e-05
-1.69075e-13
1.37497e-05
-9.93558e-14
1.37497e-05
-5.58145e-14
1.37497e-05
-2.9623e-14
1.37497e-05
-1.44964e-14
1.37497e-05
-6.15995e-15
1.37497e-05
-1.71344e-15
1.37497e-05
1.00618e-15
1.37497e-05
4.102e-15
1.37497e-05
1.05353e-14
1.37497e-05
2.52594e-14
1.37497e-05
5.62317e-14
1.37497e-05
1.09522e-13
1.37497e-05
2.00104e-13
1.8501e-13
1.62497e-05
-7.41417e-13
1.62497e-05
-8.04704e-13
1.62497e-05
-6.11814e-13
1.62497e-05
-4.22061e-13
1.62497e-05
-2.76495e-13
1.62497e-05
-1.71451e-13
1.62497e-05
-1.01475e-13
1.62497e-05
-5.71561e-14
1.62497e-05
-3.02847e-14
1.62497e-05
-1.47772e-14
1.62497e-05
-6.41783e-15
1.62497e-05
-2.35841e-15
1.62497e-05
-5.70716e-16
1.62497e-05
7.20448e-16
1.62497e-05
3.784e-15
1.62497e-05
1.21359e-14
1.62497e-05
3.14989e-14
1.62497e-05
6.42669e-14
1.62497e-05
1.20224e-13
1.05329e-13
1.87497e-05
-6.36302e-13
1.87497e-05
-6.90563e-13
1.87497e-05
-5.35772e-13
1.87497e-05
-3.75215e-13
1.87497e-05
-2.49025e-13
1.87497e-05
-1.55919e-13
1.87497e-05
-9.26999e-14
1.87497e-05
-5.21159e-14
1.87497e-05
-2.73537e-14
1.87497e-05
-1.31532e-14
1.87497e-05
-5.80401e-15
1.87497e-05
-2.83424e-15
1.87497e-05
-2.61452e-15
1.87497e-05
-3.97225e-15
1.87497e-05
-5.69032e-15
1.87497e-05
-6.18239e-15
1.87497e-05
-2.4899e-15
1.87497e-05
4.25977e-15
1.87497e-05
1.98202e-14
6.43744e-15
2.12497e-05
-4.87374e-13
2.12497e-05
-5.24164e-13
2.12497e-05
-4.13438e-13
2.12497e-05
-2.93208e-13
2.12497e-05
-1.97048e-13
2.12497e-05
-1.24449e-13
2.12497e-05
-7.40869e-14
2.12497e-05
-4.12578e-14
2.12497e-05
-2.11245e-14
2.12497e-05
-9.75846e-15
2.12497e-05
-4.3352e-15
2.12497e-05
-3.03322e-15
2.12497e-05
-4.82973e-15
2.12497e-05
-9.34059e-15
2.12497e-05
-1.66103e-14
2.12497e-05
-2.72187e-14
2.12497e-05
-4.12103e-14
2.12497e-05
-6.28613e-14
2.12497e-05
-9.00824e-14
-1.01647e-13
2.37497e-05
-3.09133e-13
2.37497e-05
-3.2246e-13
2.37497e-05
-2.59104e-13
2.37497e-05
-1.86485e-13
2.37497e-05
-1.27559e-13
2.37497e-05
-8.1453e-14
2.37497e-05
-4.83141e-14
2.37497e-05
-2.61627e-14
2.37497e-05
-1.2501e-14
2.37497e-05
-5.07447e-15
2.37497e-05
-2.20791e-15
2.37497e-05
-2.91282e-15
2.37497e-05
-6.89268e-15
2.37497e-05
-1.46264e-14
2.37497e-05
-2.74641e-14
2.37497e-05
-4.81501e-14
2.37497e-05
-7.97242e-14
2.37497e-05
-1.29221e-13
2.37497e-05
-1.98525e-13
-2.08767e-13
2.62497e-05
-1.17895e-13
2.62497e-05
-1.04785e-13
2.62497e-05
-9.00673e-14
2.62497e-05
-6.84084e-14
2.62497e-05
-4.99557e-14
2.62497e-05
-3.30992e-14
2.62497e-05
-1.92396e-14
2.62497e-05
-9.15943e-15
2.62497e-05
-2.84016e-15
2.62497e-05
1.52412e-16
2.62497e-05
2.33599e-16
2.62497e-05
-2.50598e-15
2.62497e-05
-8.51068e-15
2.62497e-05
-1.90784e-14
2.62497e-05
-3.67492e-14
2.62497e-05
-6.62131e-14
2.62497e-05
-1.13297e-13
2.62497e-05
-1.87429e-13
2.62497e-05
-2.95309e-13
-3.05296e-13
2.87497e-05
6.91195e-14
2.87497e-05
1.08192e-13
2.87497e-05
7.47626e-14
2.87497e-05
4.61726e-14
2.87497e-05
2.51801e-14
2.87497e-05
1.36033e-14
2.87497e-05
8.72393e-15
2.87497e-05
7.07967e-15
2.87497e-05
6.29361e-15
2.87497e-05
5.05135e-15
2.87497e-05
2.56472e-15
2.87497e-05
-1.90981e-15
2.87497e-05
-9.46588e-15
2.87497e-05
-2.20657e-14
2.87497e-05
-4.3184e-14
2.87497e-05
-7.905e-14
2.87497e-05
-1.37881e-13
2.87497e-05
-2.31147e-13
2.87497e-05
-3.71489e-13
-3.82618e-13
3.12497e-05
2.3466e-13
3.12497e-05
2.95544e-13
3.12497e-05
2.1637e-13
3.12497e-05
1.42531e-13
3.12497e-05
8.75021e-14
3.12497e-05
5.18761e-14
3.12497e-05
3.13586e-14
3.12497e-05
2.00223e-14
3.12497e-05
1.3429e-14
3.12497e-05
8.80148e-15
3.12497e-05
4.37163e-15
3.12497e-05
-1.25628e-15
3.12497e-05
-9.64098e-15
3.12497e-05
-2.31664e-14
3.12497e-05
-4.58773e-14
3.12497e-05
-8.49824e-14
3.12497e-05
-1.50503e-13
3.12497e-05
-2.55535e-13
3.12497e-05
-4.19782e-13
-4.33552e-13
3.37497e-05
3.62603e-13
3.37497e-05
4.37386e-13
3.37497e-05
3.17347e-13
3.37497e-05
2.07922e-13
3.37497e-05
1.2844e-13
3.37497e-05
7.63305e-14
3.37497e-05
4.54148e-14
3.37497e-05
2.77754e-14
3.37497e-05
1.74896e-14
3.37497e-05
1.08098e-14
3.37497e-05
5.3465e-15
3.37497e-05
-6.73414e-16
3.37497e-05
-9.02773e-15
3.37497e-05
-2.22261e-14
3.37497e-05
-4.44508e-14
3.37497e-05
-8.32186e-14
3.37497e-05
-1.49578e-13
3.37497e-05
-2.57641e-13
3.37497e-05
-4.34969e-13
-4.52772e-13
3.62497e-05
4.38749e-13
3.62497e-05
5.16313e-13
3.62497e-05
3.64137e-13
3.62497e-05
2.33608e-13
3.62497e-05
1.42831e-13
3.62497e-05
8.40461e-14
3.62497e-05
4.93137e-14
3.62497e-05
2.95015e-14
3.62497e-05
1.80428e-14
3.62497e-05
1.08519e-14
3.62497e-05
5.36574e-15
3.62497e-05
-2.49115e-16
3.62497e-05
-7.72278e-15
3.62497e-05
-1.93865e-14
3.62497e-05
-3.91121e-14
3.62497e-05
-7.39997e-14
3.62497e-05
-1.35162e-13
3.62497e-05
-2.36806e-13
3.62497e-05
-4.14306e-13
-4.37146e-13
3.87498e-05
4.53056e-13
3.87498e-05
5.20052e-13
3.87498e-05
3.497e-13
3.87498e-05
2.17225e-13
3.87498e-05
1.3034e-13
3.87498e-05
7.54535e-14
3.87498e-05
4.36028e-14
3.87498e-05
2.56716e-14
3.87498e-05
1.54273e-14
3.87498e-05
9.14308e-15
3.87498e-05
4.52786e-15
3.87498e-05
-9.5775e-18
3.87498e-05
-5.91701e-15
3.87498e-05
-1.50859e-14
3.87498e-05
-3.06798e-14
3.87498e-05
-5.86805e-14
3.87498e-05
-1.09183e-13
3.87498e-05
-1.95121e-13
3.87498e-05
-3.58296e-13
-3.86418e-13
4.12498e-05
4.00392e-13
4.12498e-05
4.44192e-13
4.12498e-05
2.77493e-13
4.12498e-05
1.6485e-13
4.12498e-05
9.65756e-14
4.12498e-05
5.46698e-14
4.12498e-05
3.10603e-14
4.12498e-05
1.80422e-14
4.12498e-05
1.07199e-14
4.12498e-05
6.30701e-15
4.12498e-05
3.13845e-15
4.12498e-05
7.90525e-17
4.12498e-05
-3.88226e-15
4.12498e-05
-1.00328e-14
4.12498e-05
-2.05515e-14
4.12498e-05
-3.97496e-14
4.12498e-05
-7.56054e-14
4.12498e-05
-1.38063e-13
4.12498e-05
-2.71547e-13
-3.03787e-13
4.37499e-05
2.86525e-13
4.37499e-05
2.99863e-13
4.37499e-05
1.65693e-13
4.37499e-05
9.30057e-14
4.37499e-05
5.30438e-14
4.37499e-05
2.9162e-14
4.37499e-05
1.62381e-14
4.37499e-05
9.32911e-15
4.37499e-05
5.50789e-15
4.37499e-05
3.24272e-15
4.37499e-05
1.63645e-15
4.37499e-05
8.26833e-17
4.37499e-05
-1.95886e-15
4.37499e-05
-5.14609e-15
4.37499e-05
-1.06146e-14
4.37499e-05
-2.07562e-14
4.37499e-05
-4.06027e-14
4.37499e-05
-7.53867e-14
4.37499e-05
-1.65233e-13
-1.97713e-13
4.62499e-05
1.26623e-13
4.62499e-05
1.21405e-13
4.62499e-05
5.41673e-14
4.62499e-05
2.78607e-14
4.62499e-05
1.56032e-14
4.62499e-05
8.18272e-15
4.62499e-05
4.43277e-15
4.62499e-05
2.52579e-15
4.62499e-05
1.49478e-15
4.62499e-05
8.96287e-16
4.62499e-05
4.7695e-16
4.62499e-05
5.6796e-17
4.62499e-05
-5.34089e-16
4.62499e-05
-1.46925e-15
4.62499e-05
-3.05281e-15
4.62499e-05
-6.03547e-15
4.62499e-05
-1.23056e-14
4.62499e-05
-2.27634e-14
4.62499e-05
-6.04292e-14
-8.18392e-14
4.875e-05
4.875e-05
4.875e-05
4.875e-05
4.875e-05
4.875e-05
4.875e-05
4.875e-05
4.875e-05
4.875e-05
4.875e-05
4.875e-05
4.875e-05
4.875e-05
4.875e-05
4.875e-05
4.875e-05
4.875e-05
4.875e-05
)
;

boundaryField
{
    top
    {
        type            calculated;
        value           uniform 0;
    }
    bottom
    {
        type            calculated;
        value           uniform 0;
    }
    inlet
    {
        type            calculated;
        value           nonuniform List<scalar> 
20
(
-1.24997e-06
-3.74992e-06
-6.24987e-06
-8.74983e-06
-1.12498e-05
-1.37497e-05
-1.62497e-05
-1.87497e-05
-2.12497e-05
-2.37497e-05
-2.62497e-05
-2.87497e-05
-3.12497e-05
-3.37497e-05
-3.62497e-05
-3.87498e-05
-4.12498e-05
-4.37499e-05
-4.62499e-05
-4.875e-05
)
;
    }
    outlet
    {
        type            calculated;
        value           nonuniform List<scalar> 
20
(
1.24997e-06
3.74992e-06
6.24987e-06
8.74983e-06
1.12498e-05
1.37497e-05
1.62497e-05
1.87497e-05
2.12497e-05
2.37497e-05
2.62497e-05
2.87497e-05
3.12497e-05
3.37497e-05
3.62497e-05
3.87498e-05
4.12498e-05
4.37499e-05
4.62499e-05
4.875e-05
)
;
    }
    frontAndBack
    {
        type            empty;
        value           nonuniform List<scalar> 0();
    }
}


// ************************************************************************* //
