/*--------------------------------*- C++ -*----------------------------------*\
  =========                 |
  \\      /  F ield         | OpenFOAM: The Open Source CFD Toolbox
   \\    /   O peration     | Website:  https://openfoam.org
    \\  /    A nd           | Version:  9
     \\/     M anipulation  |
\*---------------------------------------------------------------------------*/
FoamFile
{
    format      ascii;
    class       volVectorField;
    location    "2.1";
    object      U;
}
// * * * * * * * * * * * * * * * * * * * * * * * * * * * * * * * * * * * * * //

dimensions      [0 1 -1 0 0 0 0];

internalField   nonuniform List<vector> 
400
(
(0.0249995 -7.415e-10 0)
(0.0249995 -5.93019e-10 0)
(0.0249995 -2.49049e-10 0)
(0.0249995 -1.32645e-10 0)
(0.0249995 -7.31385e-11 0)
(0.0249995 -3.87309e-11 0)
(0.0249995 -2.08663e-11 0)
(0.0249995 -1.04339e-11 0)
(0.0249995 -4.69991e-12 0)
(0.0249995 -2.00618e-12 0)
(0.0249995 -7.26266e-13 0)
(0.0249995 1.05195e-13 0)
(0.0249995 9.67969e-13 0)
(0.0249995 2.43335e-12 0)
(0.0249995 5.8034e-12 0)
(0.0249995 1.54394e-11 0)
(0.0249995 3.85687e-11 0)
(0.0249995 9.2057e-11 0)
(0.0249995 3.25311e-10 0)
(0.0249995 3.81496e-10 0)
(0.0749984 -2.55332e-09 0)
(0.0749984 -2.26986e-09 0)
(0.0749984 -1.1848e-09 0)
(0.0749984 -6.80015e-10 0)
(0.0749984 -3.92703e-10 0)
(0.0749984 -2.18305e-10 0)
(0.0749984 -1.20014e-10 0)
(0.0749984 -6.34734e-11 0)
(0.0749984 -3.14784e-11 0)
(0.0749984 -1.42896e-11 0)
(0.0749984 -5.08731e-12 0)
(0.0749984 4.79724e-13 0)
(0.0749984 5.49851e-12 0)
(0.0749984 1.3671e-11 0)
(0.0749984 3.20002e-11 0)
(0.0749984 7.82764e-11 0)
(0.0749984 1.84064e-10 0)
(0.0749984 4.09677e-10 0)
(0.0749984 1.11342e-09 0)
(0.0749984 1.22233e-09 0)
(0.124997 -4.64375e-09 0)
(0.124997 -4.50973e-09 0)
(0.124997 -2.72386e-09 0)
(0.124997 -1.64807e-09 0)
(0.124997 -9.83061e-10 0)
(0.124997 -5.65297e-10 0)
(0.124997 -3.17902e-10 0)
(0.124997 -1.72281e-10 0)
(0.124997 -8.84033e-11 0)
(0.124997 -4.16212e-11 0)
(0.124997 -1.57319e-11 0)
(0.124997 -1.37391e-13 0)
(0.124997 1.32849e-11 0)
(0.124997 3.40655e-11 0)
(0.124997 7.88999e-11 0)
(0.124997 1.84273e-10 0)
(0.124997 4.15131e-10 0)
(0.124997 8.75932e-10 0)
(0.124997 1.97066e-09 0)
(0.124997 2.0268e-09 0)
(0.174997 -6.3896e-09 0)
(0.174997 -6.53492e-09 0)
(0.174997 -4.30911e-09 0)
(0.174997 -2.71425e-09 0)
(0.174997 -1.66273e-09 0)
(0.174997 -9.777e-10 0)
(0.174997 -5.58189e-10 0)
(0.174997 -3.07064e-10 0)
(0.174997 -1.6027e-10 0)
(0.174997 -7.68365e-11 0)
(0.174997 -3.0165e-11 0)
(0.174997 -2.52715e-12 0)
(0.174997 1.99828e-11 0)
(0.174997 5.31234e-11 0)
(0.174997 1.22856e-10 0)
(0.174997 2.80696e-10 0)
(0.174997 6.15516e-10 0)
(0.174997 1.24941e-09 0)
(0.174997 2.52315e-09 0)
(0.174997 2.48938e-09 0)
(0.224996 -7.53455e-09 0)
(0.224996 -7.9399e-09 0)
(0.224996 -5.55164e-09 0)
(0.224996 -3.61633e-09 0)
(0.224996 -2.26754e-09 0)
(0.224996 -1.35881e-09 0)
(0.224996 -7.86242e-10 0)
(0.224996 -4.37244e-10 0)
(0.224996 -2.30576e-10 0)
(0.224996 -1.11949e-10 0)
(0.224996 -4.556e-11 0)
(0.224996 -7.2629e-12 0)
(0.224996 2.17211e-11 0)
(0.224996 6.16563e-11 0)
(0.224996 1.44054e-10 0)
(0.224996 3.26936e-10 0)
(0.224996 7.06733e-10 0)
(0.224996 1.39283e-09 0)
(0.224996 2.64031e-09 0)
(0.224996 2.53552e-09 0)
(0.274995 -8.00487e-09 0)
(0.274995 -8.58434e-09 0)
(0.274995 -6.26e-09 0)
(0.274995 -4.19088e-09 0)
(0.274995 -2.68108e-09 0)
(0.274995 -1.63231e-09 0)
(0.274995 -9.55023e-10 0)
(0.274995 -5.35256e-10 0)
(0.274995 -2.83931e-10 0)
(0.274995 -1.38885e-10 0)
(0.274995 -5.82812e-11 0)
(0.274995 -1.37328e-11 0)
(0.274995 1.63277e-11 0)
(0.274995 5.37631e-11 0)
(0.274995 1.30488e-10 0)
(0.274995 3.01575e-10 0)
(0.274995 6.55734e-10 0)
(0.274995 1.27233e-09 0)
(0.274995 2.32929e-09 0)
(0.274995 2.1869e-09 0)
(0.324994 -7.81225e-09 0)
(0.324994 -8.45836e-09 0)
(0.324994 -6.3619e-09 0)
(0.324994 -4.35326e-09 0)
(0.324994 -2.8324e-09 0)
(0.324994 -1.74729e-09 0)
(0.324994 -1.03119e-09 0)
(0.324994 -5.80651e-10 0)
(0.324994 -3.08436e-10 0)
(0.324994 -1.51092e-10 0)
(0.324994 -6.50345e-11 0)
(0.324994 -2.07079e-11 0)
(0.324994 3.52851e-12 0)
(0.324994 2.78125e-11 0)
(0.324994 7.93155e-11 0)
(0.324994 2.01823e-10 0)
(0.324994 4.65362e-10 0)
(0.324994 9.12408e-10 0)
(0.324994 1.66276e-09 0)
(0.324994 1.51161e-09 0)
(0.374994 -7.01374e-09 0)
(0.374994 -7.61915e-09 0)
(0.374994 -5.86549e-09 0)
(0.374994 -4.08302e-09 0)
(0.374994 -2.69458e-09 0)
(0.374994 -1.68031e-09 0)
(0.374994 -9.97702e-10 0)
(0.374994 -5.62254e-10 0)
(0.374994 -2.97238e-10 0)
(0.374994 -1.44532e-10 0)
(0.374994 -6.34569e-11 0)
(0.374994 -2.66569e-11 0)
(0.374994 -1.52458e-11 0)
(0.374994 -1.39055e-11 0)
(0.374994 -4.51329e-12 0)
(0.374994 3.93055e-11 0)
(0.374994 1.61773e-10 0)
(0.374994 3.68744e-10 0)
(0.374994 7.36037e-10 0)
(0.374994 5.94545e-10 0)
(0.424994 -5.71051e-09 0)
(0.424994 -6.17997e-09 0)
(0.424994 -4.84385e-09 0)
(0.424994 -3.41813e-09 0)
(0.424994 -2.2842e-09 0)
(0.424994 -1.43737e-09 0)
(0.424994 -8.56122e-10 0)
(0.424994 -4.801e-10 0)
(0.424994 -2.49946e-10 0)
(0.424994 -1.18669e-10 0)
(0.424994 -5.27779e-11 0)
(0.424994 -3.02265e-11 0)
(0.424994 -3.73358e-11 0)
(0.424994 -6.59909e-11 0)
(0.424994 -1.10022e-10 0)
(0.424994 -1.64123e-10 0)
(0.424994 -2.13526e-10 0)
(0.424994 -2.85951e-10 0)
(0.424994 -3.41747e-10 0)
(0.424994 -4.65632e-10 0)
(0.474993 -4.03566e-09 0)
(0.474993 -4.29544e-09 0)
(0.474993 -3.42151e-09 0)
(0.474993 -2.4448e-09 0)
(0.474993 -1.65631e-09 0)
(0.474993 -1.05169e-09 0)
(0.474993 -6.25908e-10 0)
(0.474993 -3.4536e-10 0)
(0.474993 -1.72793e-10 0)
(0.474993 -7.66948e-11 0)
(0.474993 -3.4091e-11 0)
(0.474993 -3.06125e-11 0)
(0.474993 -5.94875e-11 0)
(0.474993 -1.21145e-10 0)
(0.474993 -2.22648e-10 0)
(0.474993 -3.80886e-10 0)
(0.474993 -6.11605e-10 0)
(0.474993 -9.72037e-10 0)
(0.474993 -1.45886e-09 0)
(0.474993 -1.5665e-09 0)
(0.524993 -2.14584e-09 0)
(0.524993 -2.1499e-09 0)
(0.524993 -1.75985e-09 0)
(0.524993 -1.28548e-09 0)
(0.524993 -8.95599e-10 0)
(0.524993 -5.78159e-10 0)
(0.524993 -3.41074e-10 0)
(0.524993 -1.78428e-10 0)
(0.524993 -7.75909e-11 0)
(0.524993 -2.50324e-11 0)
(0.524993 -1.02279e-11 0)
(0.524993 -2.77718e-11 0)
(0.524993 -7.84937e-11 0)
(0.524993 -1.71518e-10 0)
(0.524993 -3.26754e-10 0)
(0.524993 -5.82128e-10 0)
(0.524993 -9.82745e-10 0)
(0.524993 -1.6116e-09 0)
(0.524993 -2.50795e-09 0)
(0.524993 -2.60762e-09 0)
(0.574994 -2.10993e-10 0)
(0.574994 5.38276e-11 0)
(0.574994 -4.35295e-11 0)
(0.574994 -8.49946e-11 0)
(0.574994 -1.05287e-10 0)
(0.574994 -8.51701e-11 0)
(0.574994 -4.47142e-11 0)
(0.574994 -5.43959e-12 0)
(0.574994 2.03561e-11 0)
(0.574994 2.78271e-11 0)
(0.574994 1.47598e-11 0)
(0.574994 -2.24128e-11 0)
(0.574994 -9.17228e-11 0)
(0.574994 -2.09959e-10 0)
(0.574994 -4.07961e-10 0)
(0.574994 -7.41487e-10 0)
(0.574994 -1.28198e-09 0)
(0.574994 -2.13473e-09 0)
(0.574994 -3.39212e-09 0)
(0.574994 -3.49664e-09 0)
(0.624994 1.59378e-09 0)
(0.624994 2.10467e-09 0)
(0.624994 1.53384e-09 0)
(0.624994 1.00446e-09 0)
(0.624994 6.06277e-10 0)
(0.624994 3.55507e-10 0)
(0.624994 2.18069e-10 0)
(0.624994 1.46316e-10 0)
(0.624994 1.0509e-10 0)
(0.624994 7.29668e-11 0)
(0.624994 3.64344e-11 0)
(0.624994 -1.57766e-11 0)
(0.624994 -9.74672e-11 0)
(0.624994 -2.31035e-10 0)
(0.624994 -4.55058e-10 0)
(0.624994 -8.38212e-10 0)
(0.624994 -1.47335e-09 0)
(0.624994 -2.48451e-09 0)
(0.624994 -4.02915e-09 0)
(0.624994 -4.15346e-09 0)
(0.674994 3.09932e-09 0)
(0.674994 3.79528e-09 0)
(0.674994 2.7854e-09 0)
(0.674994 1.84081e-09 0)
(0.674994 1.14052e-09 0)
(0.674994 6.80182e-10 0)
(0.674994 4.08028e-10 0)
(0.674994 2.53518e-10 0)
(0.674994 1.63148e-10 0)
(0.674994 1.02897e-10 0)
(0.674994 5.09554e-11 0)
(0.674994 -9.26987e-12 0)
(0.674994 -9.5108e-11 0)
(0.674994 -2.31775e-10 0)
(0.674994 -4.61487e-10 0)
(0.674994 -8.59555e-10 0)
(0.674994 -1.53344e-09 0)
(0.674994 -2.62108e-09 0)
(0.674994 -4.35561e-09 0)
(0.674994 -4.51465e-09 0)
(0.724995 4.15061e-09 0)
(0.724995 4.93478e-09 0)
(0.724995 3.55086e-09 0)
(0.724995 2.31136e-09 0)
(0.724995 1.42499e-09 0)
(0.724995 8.44775e-10 0)
(0.724995 4.99494e-10 0)
(0.724995 3.01614e-10 0)
(0.724995 1.86476e-10 0)
(0.724995 1.13242e-10 0)
(0.724995 5.60053e-11 0)
(0.724995 -4.0563e-12 0)
(0.724995 -8.51183e-11 0)
(0.724995 -2.12096e-10 0)
(0.724995 -4.26307e-10 0)
(0.724995 -8.02546e-10 0)
(0.724995 -1.4541e-09 0)
(0.724995 -2.52552e-09 0)
(0.724995 -4.33053e-09 0)
(0.724995 -4.53698e-09 0)
(0.774996 4.62274e-09 0)
(0.774996 5.36722e-09 0)
(0.774996 3.71802e-09 0)
(0.774996 2.35453e-09 0)
(0.774996 1.42859e-09 0)
(0.774996 8.35031e-10 0)
(0.774996 4.86423e-10 0)
(0.774996 2.88372e-10 0)
(0.774996 1.74419e-10 0)
(0.774996 1.03867e-10 0)
(0.774996 5.14083e-11 0)
(0.774996 -7.42313e-13 0)
(0.774996 -6.89672e-11 0)
(0.774996 -1.74924e-10 0)
(0.774996 -3.54633e-10 0)
(0.774996 -6.74981e-10 0)
(0.774996 -1.24459e-09 0)
(0.774996 -2.2031e-09 0)
(0.774996 -3.94002e-09 0)
(0.774996 -4.20186e-09 0)
(0.824997 4.42084e-09 0)
(0.824997 4.9863e-09 0)
(0.824997 3.25266e-09 0)
(0.824997 1.98002e-09 0)
(0.824997 1.17431e-09 0)
(0.824997 6.72577e-10 0)
(0.824997 3.85283e-10 0)
(0.824997 2.25036e-10 0)
(0.824997 1.34199e-10 0)
(0.824997 7.90775e-11 0)
(0.824997 3.92616e-11 0)
(0.824997 7.62782e-13 0)
(0.824997 -4.89317e-11 0)
(0.824997 -1.25943e-10 0)
(0.824997 -2.57408e-10 0)
(0.824997 -4.95616e-10 0)
(0.824997 -9.32869e-10 0)
(0.824997 -1.68728e-09 0)
(0.824997 -3.20009e-09 0)
(0.824997 -3.51543e-09 0)
(0.874997 3.53068e-09 0)
(0.874997 3.80874e-09 0)
(0.874997 2.25408e-09 0)
(0.874997 1.30058e-09 0)
(0.874997 7.50338e-10 0)
(0.874997 4.18391e-10 0)
(0.874997 2.35089e-10 0)
(0.874997 1.3557e-10 0)
(0.874997 8.01039e-11 0)
(0.874997 4.70007e-11 0)
(0.874997 2.34911e-11 0)
(0.874997 9.21228e-13 0)
(0.874997 -2.83951e-11 0)
(0.874997 -7.39885e-11 0)
(0.874997 -1.52028e-10 0)
(0.874997 -2.95807e-10 0)
(0.874997 -5.71018e-10 0)
(0.874997 -1.05469e-09 0)
(0.874997 -2.18534e-09 0)
(0.874997 -2.52614e-09 0)
(0.924998 2.09603e-09 0)
(0.924998 2.11045e-09 0)
(0.924998 1.05932e-09 0)
(0.924998 5.6209e-10 0)
(0.924998 3.13813e-10 0)
(0.924998 1.67809e-10 0)
(0.924998 9.1701e-11 0)
(0.924998 5.22497e-11 0)
(0.924998 3.07997e-11 0)
(0.924998 1.82599e-11 0)
(0.924998 9.42259e-12 0)
(0.924998 7.32584e-13 0)
(0.924998 -1.10022e-11 0)
(0.924998 -2.94741e-11 0)
(0.924998 -6.11932e-11 0)
(0.924998 -1.20818e-10 0)
(0.924998 -2.4189e-10 0)
(0.924998 -4.53705e-10 0)
(0.924998 -1.09147e-09 0)
(0.924998 -1.3773e-09 0)
(0.974999 6.47447e-10 0)
(0.974999 6.05161e-10 0)
(0.974999 2.41239e-10 0)
(0.974999 1.11988e-10 0)
(0.974999 6.007e-11 0)
(0.974999 2.98773e-11 0)
(0.974999 1.56337e-11 0)
(0.974999 8.80686e-12 0)
(0.974999 5.1935e-12 0)
(0.974999 3.11041e-12 0)
(0.974999 1.65115e-12 0)
(0.974999 1.10514e-13 0)
(0.974999 -2.22842e-12 0)
(0.974999 -5.99625e-12 0)
(0.974999 -1.21565e-11 0)
(0.974999 -2.39204e-11 0)
(0.974999 -5.04488e-11 0)
(0.974999 -9.47979e-11 0)
(0.974999 -2.84067e-10 0)
(0.974999 -3.973e-10 0)
)
;

boundaryField
{
    top
    {
        type            fixedValue;
        value           uniform (1 0 0);
    }
    bottom
    {
        type            fixedValue;
        value           uniform (0 0 0);
    }
    inlet
    {
        type            zeroGradient;
    }
    outlet
    {
        type            zeroGradient;
    }
    frontAndBack
    {
        type            empty;
    }
}


// ************************************************************************* //
