/*--------------------------------*- C++ -*----------------------------------*\
  =========                 |
  \\      /  F ield         | OpenFOAM: The Open Source CFD Toolbox
   \\    /   O peration     | Website:  https://openfoam.org
    \\  /    A nd           | Version:  9
     \\/     M anipulation  |
\*---------------------------------------------------------------------------*/
FoamFile
{
    format      ascii;
    class       volScalarField;
    location    "1.8";
    object      p;
}
// * * * * * * * * * * * * * * * * * * * * * * * * * * * * * * * * * * * * * //

dimensions      [0 2 -2 0 0 0 0];

internalField   nonuniform List<scalar> 
400
(
6.16234e-08
1.02129e-07
9.87564e-08
9.39355e-08
8.60199e-08
7.66454e-08
6.68795e-08
5.69436e-08
4.70035e-08
3.71427e-08
2.73164e-08
1.74616e-08
7.55557e-09
-2.39732e-09
-1.23868e-08
-2.2432e-08
-3.22746e-08
-4.12062e-08
-5.24844e-08
-3.31578e-08
5.84421e-08
9.7298e-08
9.36251e-08
9.08603e-08
8.41542e-08
7.552e-08
6.62282e-08
5.65794e-08
4.6808e-08
3.70448e-08
2.72749e-08
1.74562e-08
7.58353e-09
-2.31908e-09
-1.22041e-08
-2.2038e-08
-3.14392e-08
-3.92898e-08
-5.12338e-08
-3.23076e-08
5.90891e-08
9.77239e-08
9.07613e-08
8.88848e-08
8.28266e-08
7.46427e-08
6.56871e-08
5.62589e-08
4.66229e-08
3.694e-08
2.72189e-08
1.74345e-08
7.59312e-09
-2.26814e-09
-1.20792e-08
-2.17935e-08
-3.10161e-08
-3.83634e-08
-5.28838e-08
-3.34966e-08
6.13579e-08
1.01984e-07
9.01586e-08
8.80509e-08
8.21089e-08
7.40734e-08
6.52948e-08
5.6002e-08
4.64563e-08
3.68309e-08
2.71489e-08
1.73942e-08
7.57845e-09
-2.25653e-09
-1.20349e-08
-2.17321e-08
-3.10189e-08
-3.84309e-08
-5.62206e-08
-3.53362e-08
6.38428e-08
1.07885e-07
9.07254e-08
8.78608e-08
8.17575e-08
7.36964e-08
6.49952e-08
5.57814e-08
4.62962e-08
3.67151e-08
2.70668e-08
1.73385e-08
7.5425e-09
-2.27909e-09
-1.2055e-08
-2.17971e-08
-3.12771e-08
-3.89776e-08
-5.99528e-08
-3.70843e-08
6.6137e-08
1.14261e-07
9.18729e-08
8.80198e-08
8.16256e-08
7.34352e-08
6.4748e-08
5.55788e-08
4.61373e-08
3.6593e-08
2.69753e-08
1.72706e-08
7.48932e-09
-2.32805e-09
-1.21193e-08
-2.19362e-08
-3.16573e-08
-3.96921e-08
-6.33761e-08
-3.85066e-08
6.81609e-08
1.20468e-07
9.32641e-08
8.83476e-08
8.16112e-08
7.32387e-08
6.45274e-08
5.53837e-08
4.59774e-08
3.64665e-08
2.68775e-08
1.7194e-08
7.42399e-09
-2.39412e-09
-1.2208e-08
-2.21033e-08
-3.20626e-08
-4.03857e-08
-6.61317e-08
-3.95621e-08
6.98342e-08
1.25975e-07
9.46263e-08
8.86862e-08
8.16223e-08
7.30596e-08
6.43107e-08
5.51864e-08
4.58142e-08
3.63368e-08
2.67761e-08
1.71131e-08
7.35317e-09
-2.46577e-09
-1.22986e-08
-2.22539e-08
-3.2405e-08
-4.09166e-08
-6.79705e-08
-4.02112e-08
7.11064e-08
1.30371e-07
9.57387e-08
8.89125e-08
8.15862e-08
7.28629e-08
6.40826e-08
5.49816e-08
4.56473e-08
3.62058e-08
2.66745e-08
1.70328e-08
7.2844e-09
-2.53045e-09
-1.23691e-08
-2.23486e-08
-3.2614e-08
-4.11807e-08
-6.87512e-08
-4.04431e-08
7.19398e-08
1.33354e-07
9.64499e-08
8.89486e-08
8.14605e-08
7.26313e-08
6.38388e-08
5.47702e-08
4.54793e-08
3.60768e-08
2.65766e-08
1.69579e-08
7.22493e-09
-2.57695e-09
-1.24015e-08
-2.23582e-08
-3.26406e-08
-4.11182e-08
-6.84214e-08
-4.02608e-08
7.23072e-08
1.34729e-07
9.66754e-08
8.87638e-08
8.12336e-08
7.23668e-08
6.35864e-08
5.45597e-08
4.53166e-08
3.59547e-08
2.64865e-08
1.68928e-08
7.18042e-09
-2.59722e-09
-1.23844e-08
-2.2267e-08
-3.24619e-08
-4.071e-08
-6.70069e-08
-3.96818e-08
7.21843e-08
1.344e-07
9.63969e-08
8.83728e-08
8.09233e-08
7.2089e-08
6.33429e-08
5.43635e-08
4.51681e-08
3.58454e-08
2.64081e-08
1.68407e-08
7.15406e-09
-2.58795e-09
-1.23146e-08
-2.20747e-08
-3.20812e-08
-3.99759e-08
-6.45995e-08
-3.87332e-08
7.15489e-08
1.32377e-07
9.5665e-08
8.78329e-08
8.05735e-08
7.18312e-08
6.3133e-08
5.41984e-08
4.50446e-08
3.57553e-08
2.6345e-08
1.68033e-08
7.14591e-09
-2.55135e-09
-1.21989e-08
-2.17973e-08
-3.15287e-08
-3.8972e-08
-6.13511e-08
-3.74525e-08
7.03939e-08
1.28793e-07
9.46024e-08
8.7243e-08
8.02493e-08
7.16366e-08
6.29847e-08
5.40822e-08
4.49567e-08
3.56901e-08
2.62996e-08
1.67802e-08
7.1528e-09
-2.49536e-09
-1.20537e-08
-2.14673e-08
-3.08613e-08
-3.77905e-08
-5.74732e-08
-3.58912e-08
6.87225e-08
1.23918e-07
9.34119e-08
8.67356e-08
8.0031e-08
7.15506e-08
6.29245e-08
5.40302e-08
4.49129e-08
3.56539e-08
2.62731e-08
1.67696e-08
7.16867e-09
-2.43288e-09
-1.19038e-08
-2.11312e-08
-3.01602e-08
-3.65586e-08
-5.32362e-08
-3.41162e-08
6.65816e-08
1.18191e-07
9.2359e-08
8.64664e-08
8.00002e-08
7.16142e-08
6.29717e-08
5.40516e-08
4.49174e-08
3.56481e-08
2.62645e-08
1.6768e-08
7.18536e-09
-2.38006e-09
-1.17797e-08
-2.08455e-08
-2.9525e-08
-3.54305e-08
-4.89688e-08
-3.22156e-08
6.40072e-08
1.12216e-07
9.17879e-08
8.65908e-08
8.02323e-08
7.18551e-08
6.31351e-08
5.41478e-08
4.49691e-08
3.56711e-08
2.62716e-08
1.67707e-08
7.19368e-09
-2.35453e-09
-1.17136e-08
-2.06715e-08
-2.90689e-08
-3.45927e-08
-4.50579e-08
-3.02839e-08
6.13741e-08
1.07172e-07
9.22781e-08
8.73559e-08
8.08241e-08
7.23097e-08
6.34235e-08
5.43191e-08
4.50662e-08
3.57208e-08
2.62914e-08
1.67724e-08
7.18267e-09
-2.37745e-09
-1.17442e-08
-2.0684e-08
-2.89461e-08
-3.43443e-08
-4.21449e-08
-2.85799e-08
5.98816e-08
1.0527e-07
9.49022e-08
8.91692e-08
8.19462e-08
7.30381e-08
6.38576e-08
5.45714e-08
4.52112e-08
3.57986e-08
2.63244e-08
1.67706e-08
7.14443e-09
-2.46681e-09
-1.1911e-08
-2.09718e-08
-2.93609e-08
-3.5165e-08
-4.13619e-08
-2.79053e-08
6.17363e-08
1.08453e-07
9.96719e-08
9.19673e-08
8.35176e-08
7.39671e-08
6.4387e-08
5.48742e-08
4.53856e-08
3.58946e-08
2.63661e-08
1.67653e-08
7.08431e-09
-2.60928e-09
-1.21912e-08
-2.14976e-08
-3.02922e-08
-3.70385e-08
-4.34019e-08
-2.94595e-08
)
;

boundaryField
{
    top
    {
        type            zeroGradient;
    }
    bottom
    {
        type            zeroGradient;
    }
    inlet
    {
        type            fixedValue;
        value           uniform 0;
    }
    outlet
    {
        type            fixedValue;
        value           uniform 0;
    }
    frontAndBack
    {
        type            empty;
    }
}


// ************************************************************************* //
