/*--------------------------------*- C++ -*----------------------------------*\
  =========                 |
  \\      /  F ield         | OpenFOAM: The Open Source CFD Toolbox
   \\    /   O peration     | Website:  https://openfoam.org
    \\  /    A nd           | Version:  9
     \\/     M anipulation  |
\*---------------------------------------------------------------------------*/
FoamFile
{
    format      ascii;
    class       surfaceScalarField;
    location    "1.8";
    object      phi;
}
// * * * * * * * * * * * * * * * * * * * * * * * * * * * * * * * * * * * * * //

dimensions      [0 3 -1 0 0 0 0];

internalField   nonuniform List<scalar> 
760
(
1.24993e-06
-3.77423e-13
1.24993e-06
-3.14087e-13
1.24993e-06
-1.49618e-13
1.24993e-06
-8.50727e-14
1.24993e-06
-4.88337e-14
1.24993e-06
-2.68384e-14
1.24993e-06
-1.47081e-14
1.24993e-06
-7.7023e-15
1.24993e-06
-3.76046e-15
1.24993e-06
-1.71244e-15
1.24993e-06
-6.42895e-16
1.24993e-06
1.4139e-17
1.24993e-06
6.18958e-16
1.24993e-06
1.59952e-15
1.24993e-06
3.79059e-15
1.24993e-06
9.57143e-15
1.24993e-06
2.28246e-14
1.24993e-06
5.10533e-14
1.24993e-06
1.60763e-13
1.85574e-13
3.7498e-06
-9.08563e-13
3.74981e-06
-8.51401e-13
3.74981e-06
-4.86785e-13
3.74981e-06
-2.8971e-13
3.74981e-06
-1.70966e-13
3.74981e-06
-9.72806e-14
3.74981e-06
-5.434e-14
3.74981e-06
-2.92581e-14
3.74981e-06
-1.48876e-14
3.74981e-06
-6.94842e-15
3.74981e-06
-2.59101e-15
3.74981e-06
3.16751e-17
3.74981e-06
2.30946e-15
3.74981e-06
5.88413e-15
3.74981e-06
1.36955e-14
3.74981e-06
3.2528e-14
3.74981e-06
7.45519e-14
3.74981e-06
1.60082e-13
3.74981e-06
3.9014e-13
4.12309e-13
6.24968e-06
-1.38189e-12
6.24968e-06
-1.38639e-12
6.24968e-06
-8.81296e-13
6.24968e-06
-5.45741e-13
6.24968e-06
-3.30704e-13
6.24968e-06
-1.92732e-13
6.24968e-06
-1.09381e-13
6.24968e-06
-5.98292e-14
6.24968e-06
-3.10265e-14
6.24968e-06
-1.47635e-14
6.24968e-06
-5.70408e-15
6.24968e-06
-3.14955e-16
6.24968e-06
4.15863e-15
6.24968e-06
1.08848e-14
6.24968e-06
2.52079e-14
6.24968e-06
5.81897e-14
6.24968e-06
1.29205e-13
6.24968e-06
2.67257e-13
6.24968e-06
5.66097e-13
5.66518e-13
8.74956e-06
-1.7363e-12
8.74957e-06
-1.80842e-12
8.74957e-06
-1.23093e-12
8.74957e-06
-7.89835e-13
8.74957e-06
-4.90178e-13
8.74957e-06
-2.91351e-13
8.74957e-06
-1.67624e-13
8.74957e-06
-9.27797e-14
8.74957e-06
-4.86982e-14
8.74957e-06
-2.35053e-14
8.74957e-06
-9.41586e-15
8.74957e-06
-1.20237e-15
8.74957e-06
5.21509e-15
8.74957e-06
1.43341e-14
8.74957e-06
3.33419e-14
8.74957e-06
7.59341e-14
8.74957e-06
1.65337e-13
8.74957e-06
3.30611e-13
8.74957e-06
6.46558e-13
6.27062e-13
1.12495e-05
-1.93561e-12
1.12495e-05
-2.06103e-12
1.12495e-05
-1.47262e-12
1.12495e-05
-9.73149e-13
1.12495e-05
-6.1677e-13
1.12495e-05
-3.72744e-13
1.12495e-05
-2.1697e-13
1.12495e-05
-1.21159e-13
1.12495e-05
-6.40812e-14
1.12495e-05
-3.12262e-14
1.12495e-05
-1.29148e-14
1.12495e-05
-2.59467e-15
1.12495e-05
4.76553e-15
1.12495e-05
1.4422e-14
1.12495e-05
3.42918e-14
1.12495e-05
7.85047e-14
1.12495e-05
1.70162e-13
1.12495e-05
3.32854e-13
1.12495e-05
6.20686e-13
5.88326e-13
1.37494e-05
-1.9702e-12
1.37494e-05
-2.12502e-12
1.37494e-05
-1.5732e-12
1.37494e-05
-1.06481e-12
1.37494e-05
-6.87063e-13
1.37494e-05
-4.21102e-13
1.37494e-05
-2.47456e-13
1.37494e-05
-1.3901e-13
1.37494e-05
-7.37773e-14
1.37494e-05
-3.61027e-14
1.37494e-05
-1.53399e-14
1.37494e-05
-4.26534e-15
1.37494e-05
2.50825e-15
1.37494e-05
1.0219e-14
1.37494e-05
2.62427e-14
1.37494e-05
6.29161e-14
1.37494e-05
1.40059e-13
1.37494e-05
2.72789e-13
1.37494e-05
4.984e-13
4.60805e-13
1.62493e-05
-1.8466e-12
1.62493e-05
-2.00423e-12
1.62493e-05
-1.52381e-12
1.62493e-05
-1.0512e-12
1.62493e-05
-6.88645e-13
1.62493e-05
-4.27019e-13
1.62493e-05
-2.52734e-13
1.62493e-05
-1.42351e-13
1.62493e-05
-7.5425e-14
1.62493e-05
-3.68017e-14
1.62493e-05
-1.59818e-14
1.62493e-05
-5.87136e-15
1.62493e-05
-1.41889e-15
1.62493e-05
1.79705e-15
1.62493e-05
9.42761e-15
1.62493e-05
3.023e-14
1.62493e-05
7.84574e-14
1.62493e-05
1.60073e-13
1.62493e-05
2.99444e-13
2.62346e-13
1.87492e-05
-1.5848e-12
1.87492e-05
-1.71994e-12
1.87492e-05
-1.33441e-12
1.87492e-05
-9.3452e-13
1.87492e-05
-6.20226e-13
1.87492e-05
-3.88334e-13
1.87492e-05
-2.30878e-13
1.87492e-05
-1.29798e-13
1.87492e-05
-6.81247e-14
1.87492e-05
-3.27567e-14
1.87492e-05
-1.44527e-14
1.87492e-05
-7.05626e-15
1.87492e-05
-6.50911e-15
1.87492e-05
-9.89072e-15
1.87492e-05
-1.41697e-14
1.87492e-05
-1.5395e-14
1.87492e-05
-6.19792e-15
1.87492e-05
1.06139e-14
1.87492e-05
4.93705e-14
1.60378e-14
2.12492e-05
-1.21387e-12
2.12492e-05
-1.3055e-12
2.12492e-05
-1.02972e-12
2.12492e-05
-7.30272e-13
2.12492e-05
-4.90773e-13
2.12492e-05
-3.09953e-13
2.12492e-05
-1.8452e-13
2.12492e-05
-1.02754e-13
2.12492e-05
-5.261e-14
2.12492e-05
-2.43016e-14
2.12492e-05
-1.07944e-14
2.12492e-05
-7.55179e-15
2.12492e-05
-1.20264e-14
2.12492e-05
-2.32615e-14
2.12492e-05
-4.1368e-14
2.12492e-05
-6.779e-14
2.12492e-05
-1.02638e-13
2.12492e-05
-1.56564e-13
2.12492e-05
-2.24362e-13
-2.53166e-13
2.37492e-05
-7.6994e-13
2.37492e-05
-8.0313e-13
2.37492e-05
-6.45334e-13
2.37492e-05
-4.64463e-13
2.37492e-05
-3.17701e-13
2.37492e-05
-2.02866e-13
2.37492e-05
-1.20329e-13
2.37492e-05
-6.51585e-14
2.37492e-05
-3.11321e-14
2.37492e-05
-1.26356e-14
2.37492e-05
-5.49619e-15
2.37492e-05
-7.25202e-15
2.37492e-05
-1.71646e-14
2.37492e-05
-3.64269e-14
2.37492e-05
-6.84013e-14
2.37492e-05
-1.19924e-13
2.37492e-05
-1.98565e-13
2.37492e-05
-3.21846e-13
2.37492e-05
-4.94459e-13
-5.19968e-13
2.62492e-05
-2.93635e-13
2.62492e-05
-2.60981e-13
2.62492e-05
-2.24324e-13
2.62492e-05
-1.70378e-13
2.62492e-05
-1.24419e-13
2.62492e-05
-8.24352e-14
2.62492e-05
-4.7916e-14
2.62492e-05
-2.28099e-14
2.62492e-05
-7.07094e-15
2.62492e-05
3.8232e-16
2.62492e-05
5.84428e-16
2.62492e-05
-6.23897e-15
2.62492e-05
-2.11947e-14
2.62492e-05
-4.75155e-14
2.62492e-05
-9.15278e-14
2.62492e-05
-1.64913e-13
2.62492e-05
-2.82184e-13
2.62492e-05
-4.66825e-13
2.62492e-05
-7.35519e-13
-7.60393e-13
2.87492e-05
1.72153e-13
2.87492e-05
2.6947e-13
2.87492e-05
1.86208e-13
2.87492e-05
1.15001e-13
2.87492e-05
6.27164e-14
2.87492e-05
3.3883e-14
2.87492e-05
2.17304e-14
2.87492e-05
1.76352e-14
2.87492e-05
1.56775e-14
2.87492e-05
1.25834e-14
2.87492e-05
6.39003e-15
2.87492e-05
-4.75449e-15
2.87492e-05
-2.35742e-14
2.87492e-05
-5.49562e-14
2.87492e-05
-1.07555e-13
2.87492e-05
-1.96886e-13
2.87492e-05
-3.43416e-13
2.87492e-05
-5.75713e-13
2.87492e-05
-9.2526e-13
-9.52977e-13
3.12492e-05
5.84455e-13
3.12492e-05
7.36094e-13
3.12492e-05
5.38901e-13
3.12492e-05
3.54993e-13
3.12492e-05
2.17937e-13
3.12492e-05
1.29206e-13
3.12492e-05
7.81044e-14
3.12492e-05
4.98701e-14
3.12492e-05
3.34485e-14
3.12492e-05
2.19231e-14
3.12492e-05
1.08899e-14
3.12492e-05
-3.12724e-15
3.12492e-05
-2.40107e-14
3.12492e-05
-5.76983e-14
3.12492e-05
-1.14264e-13
3.12492e-05
-2.11663e-13
3.12492e-05
-3.74854e-13
3.12492e-05
-6.36456e-13
3.12492e-05
-1.04554e-12
-1.07984e-12
3.37493e-05
9.03117e-13
3.37493e-05
1.08937e-12
3.37493e-05
7.90398e-13
3.37493e-05
5.17858e-13
3.37493e-05
3.19898e-13
3.37493e-05
1.90112e-13
3.37493e-05
1.13113e-13
3.37493e-05
6.91797e-14
3.37493e-05
4.35615e-14
3.37493e-05
2.69245e-14
3.37493e-05
1.33175e-14
3.37493e-05
-1.67593e-15
3.37493e-05
-2.24837e-14
3.37493e-05
-5.53566e-14
3.37493e-05
-1.10711e-13
3.37493e-05
-2.0727e-13
3.37493e-05
-3.7255e-13
3.37493e-05
-6.41701e-13
3.37493e-05
-1.08337e-12
-1.12771e-12
3.62494e-05
1.09277e-12
3.62494e-05
1.28595e-12
3.62494e-05
9.06935e-13
3.62494e-05
5.81833e-13
3.62494e-05
3.55741e-13
3.62494e-05
2.09329e-13
3.62494e-05
1.22823e-13
3.62494e-05
7.34783e-14
3.62494e-05
4.49389e-14
3.62494e-05
2.7029e-14
3.62494e-05
1.3365e-14
3.62494e-05
-6.19505e-16
3.62494e-05
-1.9234e-14
3.62494e-05
-4.82845e-14
3.62494e-05
-9.74149e-14
3.62494e-05
-1.84309e-13
3.62494e-05
-3.36646e-13
3.62494e-05
-5.8981e-13
3.62494e-05
-1.0319e-12
-1.08879e-12
3.87495e-05
1.1284e-12
3.87495e-05
1.29527e-12
3.87495e-05
8.70979e-13
3.87495e-05
5.41028e-13
3.87495e-05
3.2463e-13
3.87495e-05
1.87927e-13
3.87495e-05
1.08599e-13
3.87495e-05
6.39389e-14
3.87495e-05
3.84243e-14
3.87495e-05
2.27726e-14
3.87495e-05
1.12778e-14
3.87495e-05
-2.3208e-17
3.87495e-05
-1.47368e-14
3.87495e-05
-3.75736e-14
3.87495e-05
-7.64129e-14
3.87495e-05
-1.46154e-13
3.87495e-05
-2.71941e-13
3.87495e-05
-4.85985e-13
3.87495e-05
-8.924e-13
-9.62444e-13
4.12496e-05
9.97236e-13
4.12496e-05
1.10632e-12
4.12496e-05
6.91137e-13
4.12496e-05
4.10581e-13
4.12496e-05
2.40535e-13
4.12496e-05
1.36163e-13
4.12496e-05
7.73599e-14
4.12496e-05
4.49366e-14
4.12496e-05
2.66996e-14
4.12496e-05
1.57087e-14
4.12496e-05
7.81702e-15
4.12496e-05
1.97249e-16
4.12496e-05
-9.66911e-15
4.12496e-05
-2.49881e-14
4.12496e-05
-5.11867e-14
4.12496e-05
-9.90034e-14
4.12496e-05
-1.88309e-13
4.12496e-05
-3.4387e-13
4.12496e-05
-6.76338e-13
-7.56635e-13
4.37497e-05
7.13633e-13
4.37497e-05
7.46852e-13
4.37497e-05
4.12683e-13
4.37497e-05
2.31644e-13
4.37497e-05
1.32113e-13
4.37497e-05
7.26318e-14
4.37497e-05
4.04431e-14
4.37497e-05
2.32355e-14
4.37497e-05
1.37182e-14
4.37497e-05
8.07654e-15
4.37497e-05
4.07592e-15
4.37497e-05
2.06066e-16
4.37497e-05
-4.87879e-15
4.37497e-05
-1.28171e-14
4.37497e-05
-2.64373e-14
4.37497e-05
-5.16971e-14
4.37497e-05
-1.01128e-13
4.37497e-05
-1.87765e-13
4.37497e-05
-4.11543e-13
-4.92441e-13
4.62498e-05
3.15372e-13
4.62498e-05
3.02376e-13
4.62498e-05
1.34911e-13
4.62498e-05
6.9391e-14
4.62498e-05
3.88619e-14
4.62498e-05
2.03802e-14
4.62498e-05
1.10404e-14
4.62498e-05
6.29085e-15
4.62498e-05
3.72297e-15
4.62498e-05
2.23236e-15
4.62498e-05
1.18796e-15
4.62498e-05
1.41529e-16
4.62498e-05
-1.33033e-15
4.62498e-05
-3.65937e-15
4.62498e-05
-7.60353e-15
4.62498e-05
-1.50324e-14
4.62498e-05
-3.06493e-14
4.62498e-05
-5.66966e-14
4.62498e-05
-1.5051e-13
-2.03835e-13
4.87499e-05
4.87499e-05
4.87499e-05
4.87499e-05
4.87499e-05
4.87499e-05
4.87499e-05
4.87499e-05
4.87499e-05
4.87499e-05
4.87499e-05
4.87499e-05
4.87499e-05
4.87499e-05
4.87499e-05
4.87499e-05
4.87499e-05
4.87499e-05
4.87499e-05
)
;

boundaryField
{
    top
    {
        type            calculated;
        value           uniform 0;
    }
    bottom
    {
        type            calculated;
        value           uniform 0;
    }
    inlet
    {
        type            calculated;
        value           nonuniform List<scalar> 
20
(
-1.24993e-06
-3.7498e-06
-6.24968e-06
-8.74956e-06
-1.12495e-05
-1.37494e-05
-1.62493e-05
-1.87492e-05
-2.12492e-05
-2.37492e-05
-2.62492e-05
-2.87492e-05
-3.12492e-05
-3.37493e-05
-3.62494e-05
-3.87495e-05
-4.12496e-05
-4.37497e-05
-4.62498e-05
-4.87499e-05
)
;
    }
    outlet
    {
        type            calculated;
        value           nonuniform List<scalar> 
20
(
1.24993e-06
3.74981e-06
6.24968e-06
8.74957e-06
1.12495e-05
1.37494e-05
1.62493e-05
1.87492e-05
2.12492e-05
2.37492e-05
2.62492e-05
2.87492e-05
3.12492e-05
3.37493e-05
3.62494e-05
3.87495e-05
4.12496e-05
4.37497e-05
4.62498e-05
4.87499e-05
)
;
    }
    frontAndBack
    {
        type            empty;
        value           nonuniform List<scalar> 0();
    }
}


// ************************************************************************* //
