/*--------------------------------*- C++ -*----------------------------------*\
  =========                 |
  \\      /  F ield         | OpenFOAM: The Open Source CFD Toolbox
   \\    /   O peration     | Website:  https://openfoam.org
    \\  /    A nd           | Version:  9
     \\/     M anipulation  |
\*---------------------------------------------------------------------------*/
FoamFile
{
    format      ascii;
    class       volVectorField;
    location    "1.8";
    object      U;
}
// * * * * * * * * * * * * * * * * * * * * * * * * * * * * * * * * * * * * * //

dimensions      [0 1 -1 0 0 0 0];

internalField   nonuniform List<vector> 
400
(
(0.0249987 -1.84681e-09 0)
(0.0249987 -1.477e-09 0)
(0.0249987 -6.20281e-10 0)
(0.0249987 -3.30359e-10 0)
(0.0249987 -1.82151e-10 0)
(0.0249987 -9.64533e-11 0)
(0.0249987 -5.19593e-11 0)
(0.0249987 -2.59764e-11 0)
(0.0249987 -1.1696e-11 0)
(0.0249987 -4.98971e-12 0)
(0.0249987 -1.80716e-12 0)
(0.0249987 2.55253e-13 0)
(0.0249987 2.40074e-12 0)
(0.0249987 6.04855e-12 0)
(0.0249987 1.44409e-11 0)
(0.0249987 3.84418e-11 0)
(0.0249987 9.60496e-11 0)
(0.0249987 2.29272e-10 0)
(0.0249987 8.1024e-10 0)
(0.0249987 9.50183e-10 0)
(0.0749961 -6.35941e-09 0)
(0.0749961 -5.65342e-09 0)
(0.0749961 -2.9509e-09 0)
(0.0749961 -1.69366e-09 0)
(0.0749961 -9.78066e-10 0)
(0.0749961 -5.43702e-10 0)
(0.0749961 -2.98896e-10 0)
(0.0749961 -1.58075e-10 0)
(0.0749961 -7.83882e-11 0)
(0.0749961 -3.55806e-11 0)
(0.0749961 -1.26671e-11 0)
(0.0749961 1.1886e-12 0)
(0.0749961 1.36849e-11 0)
(0.0749961 3.40378e-11 0)
(0.0749961 7.96887e-11 0)
(0.0749961 1.94949e-10 0)
(0.0749961 4.58433e-10 0)
(0.0749961 1.02036e-09 0)
(0.0749961 2.77316e-09 0)
(0.0749961 3.04443e-09 0)
(0.124994 -1.15659e-08 0)
(0.124994 -1.12321e-08 0)
(0.124994 -6.78414e-09 0)
(0.124994 -4.10475e-09 0)
(0.124994 -2.44844e-09 0)
(0.124994 -1.40794e-09 0)
(0.124994 -7.91768e-10 0)
(0.124994 -4.29081e-10 0)
(0.124994 -2.20173e-10 0)
(0.124994 -1.03657e-10 0)
(0.124994 -3.91769e-11 0)
(0.124994 -3.37371e-13 0)
(0.124994 3.30927e-11 0)
(0.124994 8.48509e-11 0)
(0.124994 1.9652e-10 0)
(0.124994 4.58971e-10 0)
(0.124994 1.03397e-09 0)
(0.124994 2.18168e-09 0)
(0.124994 4.9083e-09 0)
(0.124994 5.04811e-09 0)
(0.174991 -1.59142e-08 0)
(0.174991 -1.62761e-08 0)
(0.174991 -1.07324e-08 0)
(0.174991 -6.7602e-09 0)
(0.174991 -4.14124e-09 0)
(0.174991 -2.43508e-09 0)
(0.174991 -1.39023e-09 0)
(0.174991 -7.64772e-10 0)
(0.174991 -3.99163e-10 0)
(0.174991 -1.91361e-10 0)
(0.174991 -7.51198e-11 0)
(0.174991 -6.28358e-12 0)
(0.174991 4.9781e-11 0)
(0.174991 1.32325e-10 0)
(0.174991 3.06009e-10 0)
(0.174991 6.99139e-10 0)
(0.174991 1.53307e-09 0)
(0.174991 3.11192e-09 0)
(0.174991 6.28438e-09 0)
(0.174991 6.20027e-09 0)
(0.224989 -1.87659e-08 0)
(0.224989 -1.97754e-08 0)
(0.224989 -1.38271e-08 0)
(0.224989 -9.00694e-09 0)
(0.224989 -5.6476e-09 0)
(0.224989 -3.38428e-09 0)
(0.224989 -1.95822e-09 0)
(0.224989 -1.08899e-09 0)
(0.224989 -5.74263e-10 0)
(0.224989 -2.78806e-10 0)
(0.224989 -1.13458e-10 0)
(0.224989 -1.8074e-11 0)
(0.224989 5.4115e-11 0)
(0.224989 1.53582e-10 0)
(0.224989 3.5881e-10 0)
(0.224989 8.14314e-10 0)
(0.224989 1.76027e-09 0)
(0.224989 3.46912e-09 0)
(0.224989 6.5762e-09 0)
(0.224989 6.31519e-09 0)
(0.274987 -1.99373e-08 0)
(0.274987 -2.13805e-08 0)
(0.274987 -1.55914e-08 0)
(0.274987 -1.04379e-08 0)
(0.274987 -6.67757e-09 0)
(0.274987 -4.06546e-09 0)
(0.274987 -2.37858e-09 0)
(0.274987 -1.3331e-09 0)
(0.274987 -7.07143e-10 0)
(0.274987 -3.45889e-10 0)
(0.274987 -1.45136e-10 0)
(0.274987 -3.41834e-11 0)
(0.274987 4.06868e-11 0)
(0.274987 1.33927e-10 0)
(0.274987 3.25027e-10 0)
(0.274987 7.51155e-10 0)
(0.274987 1.63326e-09 0)
(0.274987 3.16901e-09 0)
(0.274987 5.80156e-09 0)
(0.274987 5.4469e-09 0)
(0.324986 -1.94575e-08 0)
(0.324986 -2.10667e-08 0)
(0.324986 -1.58452e-08 0)
(0.324986 -1.08424e-08 0)
(0.324986 -7.05445e-09 0)
(0.324986 -4.35184e-09 0)
(0.324986 -2.56828e-09 0)
(0.324986 -1.44616e-09 0)
(0.324986 -7.68173e-10 0)
(0.324986 -3.76287e-10 0)
(0.324986 -1.61952e-10 0)
(0.324986 -5.15516e-11 0)
(0.324986 8.81274e-12 0)
(0.324986 6.92973e-11 0)
(0.324986 1.97577e-10 0)
(0.324986 5.02709e-10 0)
(0.324986 1.1591e-09 0)
(0.324986 2.27256e-09 0)
(0.324986 4.14144e-09 0)
(0.324986 3.76497e-09 0)
(0.374985 -1.74687e-08 0)
(0.374985 -1.89766e-08 0)
(0.374985 -1.46088e-08 0)
(0.374985 -1.01693e-08 0)
(0.374985 -6.71118e-09 0)
(0.374985 -4.18501e-09 0)
(0.374985 -2.48487e-09 0)
(0.374985 -1.40033e-09 0)
(0.374985 -7.40279e-10 0)
(0.374985 -3.59944e-10 0)
(0.374985 -1.58019e-10 0)
(0.374985 -6.63654e-11 0)
(0.374985 -3.79448e-11 0)
(0.374985 -3.46057e-11 0)
(0.374985 -1.1211e-11 0)
(0.374985 9.79308e-11 0)
(0.374985 4.02963e-10 0)
(0.374985 9.18467e-10 0)
(0.374985 1.83328e-09 0)
(0.374985 1.48086e-09 0)
(0.424984 -1.42228e-08 0)
(0.424984 -1.53921e-08 0)
(0.424984 -1.20643e-08 0)
(0.424984 -8.51328e-09 0)
(0.424984 -5.68907e-09 0)
(0.424984 -3.57994e-09 0)
(0.424984 -2.13225e-09 0)
(0.424984 -1.19572e-09 0)
(0.424984 -6.22491e-10 0)
(0.424984 -2.95528e-10 0)
(0.424984 -1.3142e-10 0)
(0.424984 -7.52544e-11 0)
(0.424984 -9.29622e-11 0)
(0.424984 -1.64333e-10 0)
(0.424984 -2.73999e-10 0)
(0.424984 -4.08744e-10 0)
(0.424984 -5.31788e-10 0)
(0.424984 -7.12173e-10 0)
(0.424984 -8.51136e-10 0)
(0.424984 -1.1597e-09 0)
(0.474983 -1.00514e-08 0)
(0.474983 -1.06984e-08 0)
(0.474983 -8.52173e-09 0)
(0.474983 -6.08909e-09 0)
(0.474983 -4.12522e-09 0)
(0.474983 -2.61934e-09 0)
(0.474983 -1.55887e-09 0)
(0.474983 -8.60131e-10 0)
(0.474983 -4.30332e-10 0)
(0.474983 -1.90987e-10 0)
(0.474983 -8.48781e-11 0)
(0.474983 -7.62161e-11 0)
(0.474983 -1.48135e-10 0)
(0.474983 -3.01703e-10 0)
(0.474983 -5.54514e-10 0)
(0.474983 -9.48635e-10 0)
(0.474983 -1.52328e-09 0)
(0.474983 -2.421e-09 0)
(0.474983 -3.63351e-09 0)
(0.474983 -3.90161e-09 0)
(0.524983 -5.34451e-09 0)
(0.524983 -5.35463e-09 0)
(0.524983 -4.38313e-09 0)
(0.524983 -3.20165e-09 0)
(0.524983 -2.23058e-09 0)
(0.524983 -1.43995e-09 0)
(0.524983 -8.49458e-10 0)
(0.524983 -4.44368e-10 0)
(0.524983 -1.9322e-10 0)
(0.524983 -6.23169e-11 0)
(0.524983 -2.54459e-11 0)
(0.524983 -6.91427e-11 0)
(0.524983 -1.95475e-10 0)
(0.524983 -4.2717e-10 0)
(0.524983 -8.13812e-10 0)
(0.524983 -1.44987e-09 0)
(0.524983 -2.44768e-09 0)
(0.524983 -4.01395e-09 0)
(0.524983 -6.24647e-09 0)
(0.524983 -6.49473e-09 0)
(0.574984 -5.25496e-10 0)
(0.574984 1.34076e-10 0)
(0.574984 -1.08401e-10 0)
(0.574984 -2.11671e-10 0)
(0.574984 -2.62209e-10 0)
(0.574984 -2.12102e-10 0)
(0.574984 -1.1134e-10 0)
(0.574984 -1.35213e-11 0)
(0.574984 5.07261e-11 0)
(0.574984 6.93331e-11 0)
(0.574984 3.6786e-11 0)
(0.574984 -5.57986e-11 0)
(0.574984 -2.28427e-10 0)
(0.574984 -5.22916e-10 0)
(0.574984 -1.01608e-09 0)
(0.574984 -1.84679e-09 0)
(0.574984 -3.19298e-09 0)
(0.574984 -5.31691e-09 0)
(0.574984 -8.44867e-09 0)
(0.574984 -8.709e-09 0)
(0.624985 3.96954e-09 0)
(0.624985 5.24199e-09 0)
(0.624985 3.82025e-09 0)
(0.624985 2.50177e-09 0)
(0.624985 1.51003e-09 0)
(0.624985 8.85456e-10 0)
(0.624985 5.43151e-10 0)
(0.624985 3.64441e-10 0)
(0.624985 2.61761e-10 0)
(0.624985 1.81755e-10 0)
(0.624985 9.07651e-11 0)
(0.624985 -3.92744e-11 0)
(0.624985 -2.42739e-10 0)
(0.624985 -5.75414e-10 0)
(0.624985 -1.13338e-09 0)
(0.624985 -2.0877e-09 0)
(0.624985 -3.66964e-09 0)
(0.624985 -6.18811e-09 0)
(0.624985 -1.00353e-08 0)
(0.624985 -1.03449e-08 0)
(0.674986 7.71931e-09 0)
(0.674986 9.4527e-09 0)
(0.674986 6.93743e-09 0)
(0.674986 4.58481e-09 0)
(0.674986 2.84064e-09 0)
(0.674986 1.6941e-09 0)
(0.674986 1.01626e-09 0)
(0.674986 6.31435e-10 0)
(0.674986 4.06358e-10 0)
(0.674986 2.56295e-10 0)
(0.674986 1.26927e-10 0)
(0.674986 -2.30728e-11 0)
(0.674986 -2.36867e-10 0)
(0.674986 -5.7726e-10 0)
(0.674986 -1.1494e-09 0)
(0.674986 -2.14087e-09 0)
(0.674986 -3.81931e-09 0)
(0.674986 -6.52827e-09 0)
(0.674986 -1.08484e-08 0)
(0.674986 -1.12446e-08 0)
(0.724987 1.03377e-08 0)
(0.724987 1.22908e-08 0)
(0.724987 8.84392e-09 0)
(0.724987 5.75676e-09 0)
(0.724987 3.54914e-09 0)
(0.724987 2.10403e-09 0)
(0.724987 1.24406e-09 0)
(0.724987 7.51219e-10 0)
(0.724987 4.64455e-10 0)
(0.724987 2.82055e-10 0)
(0.724987 1.395e-10 0)
(0.724987 -1.00919e-11 0)
(0.724987 -2.1199e-10 0)
(0.724987 -5.28251e-10 0)
(0.724987 -1.06178e-09 0)
(0.724987 -1.99888e-09 0)
(0.724987 -3.6217e-09 0)
(0.724987 -6.29026e-09 0)
(0.724987 -1.0786e-08 0)
(0.724987 -1.13002e-08 0)
(0.774989 1.15136e-08 0)
(0.774989 1.33678e-08 0)
(0.774989 9.26027e-09 0)
(0.774989 5.86429e-09 0)
(0.774989 3.55811e-09 0)
(0.774989 2.07976e-09 0)
(0.774989 1.21151e-09 0)
(0.774989 7.18236e-10 0)
(0.774989 4.34422e-10 0)
(0.774989 2.58701e-10 0)
(0.774989 1.28047e-10 0)
(0.774989 -1.84292e-12 0)
(0.774989 -1.71767e-10 0)
(0.774989 -4.35671e-10 0)
(0.774989 -8.83269e-10 0)
(0.774989 -1.68116e-09 0)
(0.774989 -3.09988e-09 0)
(0.774989 -5.48723e-09 0)
(0.774989 -9.81333e-09 0)
(0.774989 -1.04655e-08 0)
(0.824991 1.10108e-08 0)
(0.824991 1.24191e-08 0)
(0.824991 8.10122e-09 0)
(0.824991 4.93152e-09 0)
(0.824991 2.92477e-09 0)
(0.824991 1.67515e-09 0)
(0.824991 9.59603e-10 0)
(0.824991 5.60486e-10 0)
(0.824991 3.34244e-10 0)
(0.824991 1.96958e-10 0)
(0.824991 9.77906e-11 0)
(0.824991 1.90266e-12 0)
(0.824991 -1.2187e-10 0)
(0.824991 -3.1368e-10 0)
(0.824991 -6.41118e-10 0)
(0.824991 -1.23442e-09 0)
(0.824991 -2.32348e-09 0)
(0.824991 -4.20247e-09 0)
(0.824991 -7.97039e-09 0)
(0.824991 -8.7558e-09 0)
(0.874994 8.79368e-09 0)
(0.874994 9.48624e-09 0)
(0.874994 5.6141e-09 0)
(0.874994 3.23928e-09 0)
(0.874994 1.86882e-09 0)
(0.874994 1.04206e-09 0)
(0.874994 5.8552e-10 0)
(0.874994 3.37656e-10 0)
(0.874994 1.9951e-10 0)
(0.874994 1.17063e-10 0)
(0.874994 5.85093e-11 0)
(0.874994 2.29664e-12 0)
(0.874994 -7.07203e-11 0)
(0.874994 -1.84278e-10 0)
(0.874994 -3.78649e-10 0)
(0.874994 -7.36759e-10 0)
(0.874994 -1.42222e-09 0)
(0.874994 -2.6269e-09 0)
(0.874994 -5.44297e-09 0)
(0.874994 -6.29179e-09 0)
(0.924996 5.22047e-09 0)
(0.924996 5.25639e-09 0)
(0.924996 2.63837e-09 0)
(0.924996 1.39995e-09 0)
(0.924996 7.8158e-10 0)
(0.924996 4.17936e-10 0)
(0.924996 2.2838e-10 0)
(0.924996 1.30122e-10 0)
(0.924996 7.66995e-11 0)
(0.924996 4.54701e-11 0)
(0.924996 2.34639e-11 0)
(0.924996 1.82728e-12 0)
(0.924996 -2.73918e-11 0)
(0.924996 -7.33975e-11 0)
(0.924996 -1.52399e-10 0)
(0.924996 -3.00906e-10 0)
(0.924996 -6.02459e-10 0)
(0.924996 -1.13002e-09 0)
(0.924996 -2.71851e-09 0)
(0.924996 -3.43041e-09 0)
(0.974999 1.61256e-09 0)
(0.974999 1.50724e-09 0)
(0.974999 6.0083e-10 0)
(0.974999 2.7891e-10 0)
(0.974999 1.49601e-10 0)
(0.974999 7.44011e-11 0)
(0.974999 3.89256e-11 0)
(0.974999 2.19232e-11 0)
(0.974999 1.29249e-11 0)
(0.974999 7.73892e-12 0)
(0.974999 4.10805e-12 0)
(0.974999 2.77019e-13 0)
(0.974999 -5.54102e-12 0)
(0.974999 -1.49241e-11 0)
(0.974999 -3.02668e-11 0)
(0.974999 -5.95671e-11 0)
(0.974999 -1.25641e-10 0)
(0.974999 -2.361e-10 0)
(0.974999 -7.07513e-10 0)
(0.974999 -9.89544e-10 0)
)
;

boundaryField
{
    top
    {
        type            fixedValue;
        value           uniform (1 0 0);
    }
    bottom
    {
        type            fixedValue;
        value           uniform (0 0 0);
    }
    inlet
    {
        type            zeroGradient;
    }
    outlet
    {
        type            zeroGradient;
    }
    frontAndBack
    {
        type            empty;
    }
}


// ************************************************************************* //
