/*--------------------------------*- C++ -*----------------------------------*\
  =========                 |
  \\      /  F ield         | OpenFOAM: The Open Source CFD Toolbox
   \\    /   O peration     | Website:  https://openfoam.org
    \\  /    A nd           | Version:  9
     \\/     M anipulation  |
\*---------------------------------------------------------------------------*/
FoamFile
{
    format      ascii;
    class       volScalarField;
    location    "4.3";
    object      p;
}
// * * * * * * * * * * * * * * * * * * * * * * * * * * * * * * * * * * * * * //

dimensions      [0 2 -2 0 0 0 0];

internalField   nonuniform List<scalar> 
400
(
3.06968e-11
5.08715e-11
4.91895e-11
4.67912e-11
4.28497e-11
3.81807e-11
3.33164e-11
2.83672e-11
2.34157e-11
1.85037e-11
1.36087e-11
8.69952e-12
3.76475e-12
-1.19328e-12
-6.16953e-12
-1.11733e-11
-1.60753e-11
-2.05222e-11
-2.61427e-11
-1.65168e-11
2.91169e-11
4.84764e-11
4.66476e-11
4.52681e-11
4.19256e-11
3.76233e-11
3.29938e-11
2.81867e-11
2.33188e-11
1.84551e-11
1.35881e-11
8.69681e-12
3.77853e-12
-1.15464e-12
-6.0793e-12
-1.09786e-11
-1.56627e-11
-1.95754e-11
-2.55252e-11
-1.60958e-11
2.9437e-11
4.86845e-11
4.52161e-11
4.42807e-11
4.12621e-11
3.7185e-11
3.27235e-11
2.80267e-11
2.32264e-11
1.84028e-11
1.35602e-11
8.68601e-12
3.78341e-12
-1.12915e-12
-6.01676e-12
-1.08562e-11
-1.54507e-11
-1.91113e-11
-2.63451e-11
-1.66869e-11
3.05665e-11
5.08051e-11
4.49139e-11
4.38641e-11
4.09036e-11
3.69009e-11
3.25279e-11
2.78984e-11
2.31433e-11
1.83484e-11
1.35253e-11
8.66599e-12
3.77613e-12
-1.12326e-12
-5.99454e-12
-1.08255e-11
-1.54515e-11
-1.91439e-11
-2.80067e-11
-1.76031e-11
3.18046e-11
5.37451e-11
4.51966e-11
4.37695e-11
4.07287e-11
3.67131e-11
3.23786e-11
2.77885e-11
2.30634e-11
1.82907e-11
1.34845e-11
8.63823e-12
3.75822e-12
-1.1345e-12
-6.0045e-12
-1.08578e-11
-1.55803e-11
-1.94164e-11
-2.98661e-11
-1.8474e-11
3.29476e-11
5.69218e-11
4.57685e-11
4.38489e-11
4.06631e-11
3.6583e-11
3.22555e-11
2.76877e-11
2.29842e-11
1.82299e-11
1.3439e-11
8.60442e-12
3.73165e-12
-1.15906e-12
-6.03667e-12
-1.09269e-11
-1.57698e-11
-1.97725e-11
-3.15715e-11
-1.91826e-11
3.39558e-11
6.00137e-11
4.64615e-11
4.40122e-11
4.06561e-11
3.64849e-11
3.21455e-11
2.75904e-11
2.29045e-11
1.8167e-11
1.33902e-11
8.56619e-12
3.69896e-12
-1.1921e-12
-6.08077e-12
-1.10101e-11
-1.59718e-11
-2.01181e-11
-3.29442e-11
-1.97083e-11
3.47894e-11
6.2757e-11
4.71402e-11
4.4181e-11
4.06616e-11
3.63957e-11
3.20374e-11
2.74921e-11
2.28231e-11
1.81024e-11
1.33396e-11
8.52558e-12
3.66364e-12
-1.22783e-12
-6.1256e-12
-1.10851e-11
-1.61425e-11
-2.03826e-11
-3.38602e-11
-2.00316e-11
3.54233e-11
6.49471e-11
4.76942e-11
4.42939e-11
4.06439e-11
3.62978e-11
3.19237e-11
2.73899e-11
2.27401e-11
1.80372e-11
1.32889e-11
8.4854e-12
3.62929e-12
-1.2601e-12
-6.16071e-12
-1.11325e-11
-1.62466e-11
-2.05142e-11
-3.42494e-11
-2.01472e-11
3.58386e-11
6.64334e-11
4.80485e-11
4.43119e-11
4.05815e-11
3.61824e-11
3.18022e-11
2.72846e-11
2.26563e-11
1.7973e-11
1.32402e-11
8.44804e-12
3.59956e-12
-1.2832e-12
-6.17691e-12
-1.11372e-11
-1.62598e-11
-2.04831e-11
-3.40854e-11
-2.00565e-11
3.60216e-11
6.71184e-11
4.81609e-11
4.42202e-11
4.04685e-11
3.60506e-11
3.16769e-11
2.71798e-11
2.25752e-11
1.79121e-11
1.31951e-11
8.41597e-12
3.57761e-12
-1.29352e-12
-6.16856e-12
-1.10916e-11
-1.61707e-11
-2.02801e-11
-3.33807e-11
-1.97681e-11
3.59601e-11
6.69548e-11
4.80222e-11
4.40257e-11
4.03137e-11
3.59122e-11
3.15558e-11
2.70824e-11
2.25014e-11
1.78576e-11
1.31558e-11
8.39008e-12
3.56482e-12
-1.2887e-12
-6.13388e-12
-1.09959e-11
-1.59811e-11
-1.99146e-11
-3.21814e-11
-1.92954e-11
3.56437e-11
6.59471e-11
4.76579e-11
4.37568e-11
4.01395e-11
3.5784e-11
3.14512e-11
2.70002e-11
2.24401e-11
1.78127e-11
1.31244e-11
8.37122e-12
3.56071e-12
-1.27002e-12
-6.07599e-12
-1.0858e-11
-1.57059e-11
-1.94149e-11
-3.05633e-11
-1.86572e-11
3.50683e-11
6.41612e-11
4.71286e-11
4.34632e-11
3.9978e-11
3.56873e-11
3.13773e-11
2.69428e-11
2.23969e-11
1.77802e-11
1.31016e-11
8.35961e-12
3.56422e-12
-1.2421e-12
-6.0036e-12
-1.06935e-11
-1.53736e-11
-1.88264e-11
-2.86312e-11
-1.78792e-11
3.42356e-11
6.17327e-11
4.65357e-11
4.32108e-11
3.98697e-11
3.56446e-11
3.13475e-11
2.69171e-11
2.23753e-11
1.7762e-11
1.30883e-11
8.35416e-12
3.5724e-12
-1.21102e-12
-5.92925e-12
-1.05259e-11
-1.50243e-11
-1.82125e-11
-2.65202e-11
-1.69952e-11
3.31693e-11
5.88798e-11
4.60113e-11
4.30762e-11
3.98544e-11
3.56763e-11
3.13711e-11
2.69279e-11
2.23774e-11
1.77592e-11
1.3084e-11
8.35303e-12
3.5805e-12
-1.18466e-12
-5.86708e-12
-1.03835e-11
-1.47083e-11
-1.76504e-11
-2.43942e-11
-1.60482e-11
3.18869e-11
5.5903e-11
4.57266e-11
4.31376e-11
3.997e-11
3.57966e-11
3.14525e-11
2.69757e-11
2.24033e-11
1.7771e-11
1.30873e-11
8.35448e-12
3.58471e-12
-1.17207e-12
-5.83386e-12
-1.0297e-11
-1.44812e-11
-1.72329e-11
-2.24461e-11
-1.50859e-11
3.05756e-11
5.3392e-11
4.59724e-11
4.35198e-11
4.02653e-11
3.60238e-11
3.15966e-11
2.70612e-11
2.24518e-11
1.77957e-11
1.30975e-11
8.35587e-12
3.57935e-12
-1.18388e-12
-5.8497e-12
-1.03036e-11
-1.44206e-11
-1.711e-11
-2.09959e-11
-1.42376e-11
2.98335e-11
5.24473e-11
4.72846e-11
4.44265e-11
4.08264e-11
3.6388e-11
3.18139e-11
2.71872e-11
2.25238e-11
1.78344e-11
1.31141e-11
8.35529e-12
3.56044e-12
-1.22848e-12
-5.93342e-12
-1.0448e-11
-1.4628e-11
-1.75212e-11
-2.06086e-11
-1.39029e-11
3.0753e-11
5.40237e-11
4.96464e-11
4.58111e-11
4.16048e-11
3.68481e-11
3.20764e-11
2.73371e-11
2.261e-11
1.78822e-11
1.31346e-11
8.35238e-12
3.53057e-12
-1.29836e-12
-6.07178e-12
-1.07081e-11
-1.50881e-11
-1.84469e-11
-2.16177e-11
-1.46744e-11
)
;

boundaryField
{
    top
    {
        type            zeroGradient;
    }
    bottom
    {
        type            zeroGradient;
    }
    inlet
    {
        type            fixedValue;
        value           uniform 0;
    }
    outlet
    {
        type            fixedValue;
        value           uniform 0;
    }
    frontAndBack
    {
        type            empty;
    }
}


// ************************************************************************* //
