/*--------------------------------*- C++ -*----------------------------------*\
  =========                 |
  \\      /  F ield         | OpenFOAM: The Open Source CFD Toolbox
   \\    /   O peration     | Website:  https://openfoam.org
    \\  /    A nd           | Version:  9
     \\/     M anipulation  |
\*---------------------------------------------------------------------------*/
FoamFile
{
    format      ascii;
    class       surfaceScalarField;
    location    "4.3";
    object      phi;
}
// * * * * * * * * * * * * * * * * * * * * * * * * * * * * * * * * * * * * * //

dimensions      [0 3 -1 0 0 0 0];

internalField   nonuniform List<scalar> 
760
(
1.25e-06
-1.88021e-16
1.25e-06
-1.56466e-16
1.25e-06
-7.45212e-17
1.25e-06
-4.23878e-17
1.25e-06
-2.43314e-17
1.25e-06
-1.33718e-17
1.25e-06
-7.32815e-18
1.25e-06
-3.83725e-18
1.25e-06
-1.87346e-18
1.25e-06
-8.53329e-19
1.25e-06
-3.20679e-19
1.25e-06
6.94987e-21
1.25e-06
3.07911e-19
1.25e-06
7.95822e-19
1.25e-06
1.88815e-18
1.25e-06
4.76976e-18
1.25e-06
1.13754e-17
1.25e-06
2.54182e-17
1.25e-06
8.00878e-17
9.24459e-17
3.75e-06
-4.52636e-16
3.75e-06
-4.24154e-16
3.75e-06
-2.42509e-16
3.75e-06
-1.44336e-16
3.75e-06
-8.51747e-17
3.75e-06
-4.84639e-17
3.75e-06
-2.70704e-17
3.75e-06
-1.4574e-17
3.75e-06
-7.41644e-18
3.75e-06
-3.46183e-18
3.75e-06
-1.29097e-18
3.75e-06
1.56151e-20
3.75e-06
1.14785e-18
3.75e-06
2.92781e-18
3.75e-06
6.81848e-18
3.75e-06
1.62025e-17
3.75e-06
3.71402e-17
3.75e-06
7.97428e-17
3.75e-06
1.94358e-16
2.05406e-16
6.25e-06
-6.88439e-16
6.25e-06
-6.90685e-16
6.25e-06
-4.39056e-16
6.25e-06
-2.71891e-16
6.25e-06
-1.64755e-16
6.25e-06
-9.6016e-17
6.25e-06
-5.44915e-17
6.25e-06
-2.9803e-17
6.25e-06
-1.54556e-17
6.25e-06
-7.35461e-18
6.25e-06
-2.84289e-18
6.25e-06
-1.58377e-19
6.25e-06
2.06849e-18
6.25e-06
5.41498e-18
6.25e-06
1.25498e-17
6.25e-06
2.89842e-17
6.25e-06
6.43646e-17
6.25e-06
1.33138e-16
6.25e-06
2.82017e-16
2.82229e-16
8.75e-06
-8.64999e-16
8.75e-06
-9.00932e-16
8.75e-06
-6.13241e-16
8.75e-06
-3.93494e-16
8.75e-06
-2.44208e-16
8.75e-06
-1.45147e-16
8.75e-06
-8.35067e-17
8.75e-06
-4.6219e-17
8.75e-06
-2.42564e-17
8.75e-06
-1.17123e-17
8.75e-06
-4.69408e-18
8.75e-06
-6.0006e-19
8.75e-06
2.59388e-18
8.75e-06
7.13229e-18
8.75e-06
1.6598e-17
8.75e-06
3.78188e-17
8.75e-06
8.23611e-17
8.75e-06
1.64701e-16
8.75e-06
3.22098e-16
3.12387e-16
1.125e-05
-9.64294e-16
1.125e-05
-1.02678e-15
1.125e-05
-7.33642e-16
1.125e-05
-4.8482e-16
1.125e-05
-3.07275e-16
1.125e-05
-1.85697e-16
1.125e-05
-1.08092e-16
1.125e-05
-6.03589e-17
1.125e-05
-3.19226e-17
1.125e-05
-1.55584e-17
1.125e-05
-6.43641e-18
1.125e-05
-1.29585e-18
1.125e-05
2.3698e-18
1.125e-05
7.1769e-18
1.125e-05
1.70714e-17
1.125e-05
3.90935e-17
1.125e-05
8.47623e-17
1.125e-05
1.65815e-16
1.125e-05
3.09208e-16
2.93088e-16
1.375e-05
-9.81524e-16
1.375e-05
-1.05865e-15
1.375e-05
-7.83747e-16
1.375e-05
-5.30482e-16
1.375e-05
-3.42298e-16
1.375e-05
-2.09787e-16
1.375e-05
-1.23279e-16
1.375e-05
-6.92527e-17
1.375e-05
-3.67565e-17
1.375e-05
-1.79909e-17
1.375e-05
-7.64403e-18
1.375e-05
-2.127e-18
1.375e-05
1.24563e-18
1.375e-05
5.08185e-18
1.375e-05
1.30569e-17
1.375e-05
3.1326e-17
1.375e-05
6.97644e-17
1.375e-05
1.35892e-16
1.375e-05
2.48287e-16
2.2956e-16
1.625e-05
-9.19949e-16
1.625e-05
-9.98472e-16
1.625e-05
-7.59138e-16
1.625e-05
-5.23702e-16
1.625e-05
-3.43085e-16
1.625e-05
-2.1274e-16
1.625e-05
-1.2591e-16
1.625e-05
-7.09219e-17
1.625e-05
-3.75794e-17
1.625e-05
-1.83387e-17
1.625e-05
-7.96527e-18
1.625e-05
-2.92446e-18
1.625e-05
-7.13034e-19
1.625e-05
8.85915e-19
1.625e-05
4.67569e-18
1.625e-05
1.50436e-17
1.625e-05
3.90765e-17
1.625e-05
7.97392e-17
1.625e-05
1.49174e-16
1.30691e-16
1.875e-05
-7.89523e-16
1.875e-05
-8.5685e-16
1.875e-05
-6.64782e-16
1.875e-05
-4.65573e-16
1.875e-05
-3.09002e-16
1.875e-05
-1.93469e-16
1.875e-05
-1.15025e-16
1.875e-05
-6.4668e-17
1.875e-05
-3.39477e-17
1.875e-05
-1.63268e-17
1.875e-05
-7.20145e-18
1.875e-05
-3.51738e-18
1.875e-05
-3.24777e-18
1.875e-05
-4.93624e-18
1.875e-05
-7.076e-18
1.875e-05
-7.68412e-18
1.875e-05
-3.09946e-18
1.875e-05
5.28466e-18
1.875e-05
2.45998e-17
7.98871e-18
2.125e-05
-6.04731e-16
2.125e-05
-6.50379e-16
2.125e-05
-5.1299e-16
2.125e-05
-3.63816e-16
2.125e-05
-2.4451e-16
2.125e-05
-1.54423e-16
2.125e-05
-9.19367e-17
2.125e-05
-5.12038e-17
2.125e-05
-2.62165e-17
2.125e-05
-1.21108e-17
2.125e-05
-5.38115e-18
2.125e-05
-3.76437e-18
2.125e-05
-5.99679e-18
2.125e-05
-1.15978e-17
2.125e-05
-2.06228e-17
2.125e-05
-3.37909e-17
2.125e-05
-5.11438e-17
2.125e-05
-7.79952e-17
2.125e-05
-1.11763e-16
-1.26117e-16
2.375e-05
-3.83566e-16
2.375e-05
-4.00101e-16
2.375e-05
-3.21497e-16
2.375e-05
-2.31399e-16
2.375e-05
-1.58283e-16
2.375e-05
-1.01075e-16
2.375e-05
-5.99708e-17
2.375e-05
-3.2479e-17
2.375e-05
-1.55197e-17
2.375e-05
-6.29753e-18
2.375e-05
-2.73536e-18
2.375e-05
-3.62009e-18
2.375e-05
-8.56153e-18
2.375e-05
-1.81497e-17
2.375e-05
-3.40852e-17
2.375e-05
-5.97584e-17
2.375e-05
-9.89281e-17
2.375e-05
-1.60326e-16
2.375e-05
-2.46321e-16
-2.59032e-16
2.625e-05
-1.46273e-16
2.625e-05
-1.30012e-16
2.625e-05
-1.11756e-16
2.625e-05
-8.48935e-17
2.625e-05
-6.19903e-17
2.625e-05
-4.10845e-17
2.625e-05
-2.38973e-17
2.625e-05
-1.13906e-17
2.625e-05
-3.53663e-18
2.625e-05
1.8884e-19
2.625e-05
2.96472e-19
2.625e-05
-3.10731e-18
2.625e-05
-1.05686e-17
2.625e-05
-2.36797e-17
2.625e-05
-4.56047e-17
2.625e-05
-8.21643e-17
2.625e-05
-1.40577e-16
2.625e-05
-2.3255e-16
2.625e-05
-3.66407e-16
-3.78806e-16
2.875e-05
8.57678e-17
2.875e-05
1.3425e-16
2.875e-05
9.27606e-17
2.875e-05
5.72792e-17
2.875e-05
3.12335e-17
2.875e-05
1.68563e-17
2.875e-05
1.07977e-17
2.875e-05
8.75833e-18
2.875e-05
7.79258e-18
2.875e-05
6.26421e-18
2.875e-05
3.18604e-18
2.875e-05
-2.36078e-18
2.875e-05
-1.17461e-17
2.875e-05
-2.7388e-17
2.875e-05
-5.35909e-17
2.875e-05
-9.80825e-17
2.875e-05
-1.71079e-16
2.875e-05
-2.86789e-16
2.875e-05
-4.60925e-16
-4.74745e-16
3.125e-05
2.91173e-16
3.125e-05
3.6672e-16
3.125e-05
2.6847e-16
3.125e-05
1.76839e-16
3.125e-05
1.0856e-16
3.125e-05
6.4341e-17
3.125e-05
3.88787e-17
3.125e-05
2.4809e-17
3.125e-05
1.66374e-17
3.125e-05
1.09164e-17
3.125e-05
5.43026e-18
3.125e-05
-1.55063e-18
3.125e-05
-1.19624e-17
3.125e-05
-2.87431e-17
3.125e-05
-5.69253e-17
3.125e-05
-1.05448e-16
3.125e-05
-1.86738e-16
3.125e-05
-3.17057e-16
3.125e-05
-5.20853e-16
-5.3794e-16
3.375e-05
4.49922e-16
3.375e-05
5.42713e-16
3.375e-05
3.93763e-16
3.375e-05
2.57978e-16
3.375e-05
1.5935e-16
3.375e-05
9.46846e-17
3.375e-05
5.6318e-17
3.375e-05
3.44349e-17
3.375e-05
2.1682e-17
3.375e-05
1.34043e-17
3.375e-05
6.63447e-18
3.375e-05
-8.28573e-19
3.375e-05
-1.12035e-17
3.375e-05
-2.75733e-17
3.375e-05
-5.51455e-17
3.375e-05
-1.0326e-16
3.375e-05
-1.85593e-16
3.375e-05
-3.19674e-16
3.375e-05
-5.39699e-16
-5.61778e-16
3.625e-05
5.44397e-16
3.625e-05
6.40642e-16
3.625e-05
4.51823e-16
3.625e-05
2.89867e-16
3.625e-05
1.77212e-16
3.625e-05
1.04259e-16
3.625e-05
6.11591e-17
3.625e-05
3.65824e-17
3.625e-05
2.2376e-17
3.625e-05
1.34533e-17
3.625e-05
6.65209e-18
3.625e-05
-3.0406e-19
3.625e-05
-9.57571e-18
3.625e-05
-2.40515e-17
3.625e-05
-4.85322e-17
3.625e-05
-9.18177e-17
3.625e-05
-1.67697e-16
3.625e-05
-2.93823e-16
3.625e-05
-5.14059e-16
-5.42394e-16
3.875e-05
5.62147e-16
3.875e-05
6.45279e-16
3.875e-05
4.33917e-16
3.875e-05
2.69546e-16
3.875e-05
1.61719e-16
3.875e-05
9.3598e-17
3.875e-05
5.40815e-17
3.875e-05
3.18384e-17
3.875e-05
1.91306e-17
3.875e-05
1.13292e-17
3.875e-05
5.61248e-18
3.875e-05
-1.87357e-20
3.875e-05
-7.34144e-18
3.875e-05
-1.87156e-17
3.875e-05
-3.80683e-17
3.875e-05
-7.28057e-17
3.875e-05
-1.35465e-16
3.875e-05
-2.42103e-16
3.875e-05
-4.4456e-16
-4.79452e-16
4.125e-05
4.96811e-16
4.125e-05
5.51152e-16
4.125e-05
3.44328e-16
4.125e-05
2.04562e-16
4.125e-05
1.19833e-16
4.125e-05
6.78125e-17
4.125e-05
3.85189e-17
4.125e-05
2.23788e-17
4.125e-05
1.32981e-17
4.125e-05
7.8226e-18
4.125e-05
3.87973e-18
4.125e-05
7.96186e-20
4.125e-05
-4.82035e-18
4.125e-05
-1.24451e-17
4.125e-05
-2.54891e-17
4.125e-05
-4.93143e-17
4.125e-05
-9.38014e-17
4.125e-05
-1.71307e-16
4.125e-05
-3.36928e-16
-3.76927e-16
4.375e-05
3.55533e-16
4.375e-05
3.72074e-16
4.375e-05
2.05589e-16
4.375e-05
1.15413e-16
4.375e-05
6.58164e-17
4.375e-05
3.61715e-17
4.375e-05
2.01309e-17
4.375e-05
1.15704e-17
4.375e-05
6.8438e-18
4.375e-05
4.02682e-18
4.375e-05
2.02153e-18
4.375e-05
8.90482e-20
4.375e-05
-2.43713e-18
4.375e-05
-6.39046e-18
4.375e-05
-1.31646e-17
4.375e-05
-2.57456e-17
4.375e-05
-5.03823e-17
4.375e-05
-9.35331e-17
4.375e-05
-2.05013e-16
-2.45323e-16
4.625e-05
1.57111e-16
4.625e-05
1.50637e-16
4.625e-05
6.71918e-17
4.625e-05
3.4583e-17
4.625e-05
1.93624e-17
4.625e-05
1.01482e-17
4.625e-05
5.49157e-18
4.625e-05
3.13324e-18
4.625e-05
1.85766e-18
4.625e-05
1.11031e-18
4.625e-05
5.92274e-19
4.625e-05
6.97404e-20
4.625e-05
-6.62907e-19
4.625e-05
-1.83415e-18
4.625e-05
-3.78806e-18
4.625e-05
-7.48366e-18
4.625e-05
-1.52716e-17
4.625e-05
-2.8237e-17
4.625e-05
-7.49679e-17
-1.01538e-16
4.875e-05
4.875e-05
4.875e-05
4.875e-05
4.875e-05
4.875e-05
4.875e-05
4.875e-05
4.875e-05
4.875e-05
4.875e-05
4.875e-05
4.875e-05
4.875e-05
4.875e-05
4.875e-05
4.875e-05
4.875e-05
4.875e-05
)
;

boundaryField
{
    top
    {
        type            calculated;
        value           uniform 0;
    }
    bottom
    {
        type            calculated;
        value           uniform 0;
    }
    inlet
    {
        type            calculated;
        value           nonuniform List<scalar> 
20
(
-1.25e-06
-3.75e-06
-6.25e-06
-8.75e-06
-1.125e-05
-1.375e-05
-1.625e-05
-1.875e-05
-2.125e-05
-2.375e-05
-2.625e-05
-2.875e-05
-3.125e-05
-3.375e-05
-3.625e-05
-3.875e-05
-4.125e-05
-4.375e-05
-4.625e-05
-4.875e-05
)
;
    }
    outlet
    {
        type            calculated;
        value           nonuniform List<scalar> 
20
(
1.25e-06
3.75e-06
6.25e-06
8.75e-06
1.125e-05
1.375e-05
1.625e-05
1.875e-05
2.125e-05
2.375e-05
2.625e-05
2.875e-05
3.125e-05
3.375e-05
3.625e-05
3.875e-05
4.125e-05
4.375e-05
4.625e-05
4.875e-05
)
;
    }
    frontAndBack
    {
        type            empty;
        value           nonuniform List<scalar> 0();
    }
}


// ************************************************************************* //
