/*--------------------------------*- C++ -*----------------------------------*\
  =========                 |
  \\      /  F ield         | OpenFOAM: The Open Source CFD Toolbox
   \\    /   O peration     | Website:  https://openfoam.org
    \\  /    A nd           | Version:  9
     \\/     M anipulation  |
\*---------------------------------------------------------------------------*/
FoamFile
{
    format      ascii;
    class       volVectorField;
    location    "4.3";
    object      U;
}
// * * * * * * * * * * * * * * * * * * * * * * * * * * * * * * * * * * * * * //

dimensions      [0 1 -1 0 0 0 0];

internalField   nonuniform List<vector> 
400
(
(0.025 -9.20816e-13 0)
(0.025 -7.37311e-13 0)
(0.025 -3.10831e-13 0)
(0.025 -1.65814e-13 0)
(0.025 -9.14964e-14 0)
(0.025 -4.85022e-14 0)
(0.025 -2.61382e-14 0)
(0.025 -1.3076e-14 0)
(0.025 -5.89406e-15 0)
(0.025 -2.5128e-15 0)
(0.025 -9.06043e-16 0)
(0.025 1.34169e-16 0)
(0.025 1.21416e-15 0)
(0.025 3.05339e-15 0)
(0.025 7.29529e-15 0)
(0.025 1.93741e-14 0)
(0.025 4.83521e-14 0)
(0.025 1.15176e-13 0)
(0.025 4.04357e-13 0)
(0.025 4.7373e-13 0)
(0.075 -3.16902e-12 0)
(0.075 -2.81813e-12 0)
(0.075 -1.47216e-12 0)
(0.075 -8.45179e-13 0)
(0.075 -4.88111e-13 0)
(0.075 -2.71373e-13 0)
(0.075 -1.49185e-13 0)
(0.075 -7.88922e-14 0)
(0.075 -3.9126e-14 0)
(0.075 -1.77559e-14 0)
(0.075 -6.31733e-15 0)
(0.075 5.99209e-16 0)
(0.075 6.82595e-15 0)
(0.075 1.69847e-14 0)
(0.075 3.97921e-14 0)
(0.075 9.736e-14 0)
(0.075 2.28944e-13 0)
(0.075 5.09383e-13 0)
(0.075 1.38231e-12 0)
(0.075 1.51707e-12 0)
(0.125 -5.76202e-12 0)
(0.125 -5.59576e-12 0)
(0.125 -3.37991e-12 0)
(0.125 -2.04507e-12 0)
(0.125 -1.21983e-12 0)
(0.125 -7.01432e-13 0)
(0.125 -3.94449e-13 0)
(0.125 -2.13742e-13 0)
(0.125 -1.09679e-13 0)
(0.125 -5.16398e-14 0)
(0.125 -1.95247e-14 0)
(0.125 -1.74406e-16 0)
(0.125 1.64569e-14 0)
(0.125 4.22174e-14 0)
(0.125 9.78449e-14 0)
(0.125 2.28626e-13 0)
(0.125 5.15109e-13 0)
(0.125 1.08687e-12 0)
(0.125 2.4452e-12 0)
(0.125 2.51485e-12 0)
(0.175 -7.92816e-12 0)
(0.175 -8.10841e-12 0)
(0.175 -5.34665e-12 0)
(0.175 -3.36782e-12 0)
(0.175 -2.06308e-12 0)
(0.175 -1.21307e-12 0)
(0.175 -6.92556e-13 0)
(0.175 -3.80954e-13 0)
(0.175 -1.9882e-13 0)
(0.175 -9.53393e-14 0)
(0.175 -3.74436e-14 0)
(0.175 -3.144e-15 0)
(0.175 2.47601e-14 0)
(0.175 6.58346e-14 0)
(0.175 1.52334e-13 0)
(0.175 3.48198e-13 0)
(0.175 7.63649e-13 0)
(0.175 1.55016e-12 0)
(0.175 3.13063e-12 0)
(0.175 3.08879e-12 0)
(0.225 -9.34888e-12 0)
(0.225 -9.85183e-12 0)
(0.225 -6.88852e-12 0)
(0.225 -4.48722e-12 0)
(0.225 -2.81363e-12 0)
(0.225 -1.686e-12 0)
(0.225 -9.75546e-13 0)
(0.225 -5.42501e-13 0)
(0.225 -2.86056e-13 0)
(0.225 -1.38916e-13 0)
(0.225 -5.65516e-14 0)
(0.225 -9.0255e-15 0)
(0.225 2.6917e-14 0)
(0.225 7.64243e-14 0)
(0.225 1.78626e-13 0)
(0.225 4.0554e-13 0)
(0.225 8.76843e-13 0)
(0.225 1.72818e-12 0)
(0.225 3.27607e-12 0)
(0.225 3.14606e-12 0)
(0.275 -9.93247e-12 0)
(0.275 -1.06515e-11 0)
(0.275 -7.76747e-12 0)
(0.275 -5.20016e-12 0)
(0.275 -3.32679e-12 0)
(0.275 -2.02537e-12 0)
(0.275 -1.18498e-12 0)
(0.275 -6.64125e-13 0)
(0.275 -3.52286e-13 0)
(0.275 -1.72353e-13 0)
(0.275 -7.23268e-14 0)
(0.275 -1.70564e-14 0)
(0.275 2.02251e-14 0)
(0.275 6.66345e-14 0)
(0.275 1.61775e-13 0)
(0.275 3.7404e-13 0)
(0.275 8.13562e-13 0)
(0.275 1.57868e-12 0)
(0.275 2.89017e-12 0)
(0.275 2.7135e-12 0)
(0.325 -9.69345e-12 0)
(0.325 -1.04951e-11 0)
(0.325 -7.89386e-12 0)
(0.325 -5.40161e-12 0)
(0.325 -3.51455e-12 0)
(0.325 -2.16805e-12 0)
(0.325 -1.27948e-12 0)
(0.325 -7.20473e-13 0)
(0.325 -3.82721e-13 0)
(0.325 -1.87509e-13 0)
(0.325 -8.07091e-14 0)
(0.325 -2.56917e-14 0)
(0.325 4.33935e-15 0)
(0.325 3.44263e-14 0)
(0.325 9.82381e-14 0)
(0.325 2.50267e-13 0)
(0.325 5.77342e-13 0)
(0.325 1.13208e-12 0)
(0.325 2.06314e-12 0)
(0.325 1.87559e-12 0)
(0.375 -8.70264e-12 0)
(0.375 -9.45382e-12 0)
(0.375 -7.27788e-12 0)
(0.375 -5.06628e-12 0)
(0.375 -3.34354e-12 0)
(0.375 -2.08497e-12 0)
(0.375 -1.23795e-12 0)
(0.375 -6.97669e-13 0)
(0.375 -3.6886e-13 0)
(0.375 -1.79383e-13 0)
(0.375 -7.87504e-14 0)
(0.375 -3.30721e-14 0)
(0.375 -1.89588e-14 0)
(0.375 -1.73338e-14 0)
(0.375 -5.77943e-15 0)
(0.375 4.86284e-14 0)
(0.375 2.00632e-13 0)
(0.375 4.57508e-13 0)
(0.375 9.13311e-13 0)
(0.375 7.37706e-13 0)
(0.425 -7.08559e-12 0)
(0.425 -7.66809e-12 0)
(0.425 -6.0102e-12 0)
(0.425 -4.24126e-12 0)
(0.425 -2.83436e-12 0)
(0.425 -1.78355e-12 0)
(0.425 -1.06233e-12 0)
(0.425 -5.95775e-13 0)
(0.425 -3.10197e-13 0)
(0.425 -1.47292e-13 0)
(0.425 -6.54981e-14 0)
(0.425 -3.75141e-14 0)
(0.425 -4.63673e-14 0)
(0.425 -8.19587e-14 0)
(0.425 -1.36659e-13 0)
(0.425 -2.03806e-13 0)
(0.425 -2.65048e-13 0)
(0.425 -3.54802e-13 0)
(0.425 -4.23951e-13 0)
(0.425 -5.77717e-13 0)
(0.475 -5.0074e-12 0)
(0.475 -5.32972e-12 0)
(0.475 -4.24539e-12 0)
(0.475 -3.03357e-12 0)
(0.475 -2.05524e-12 0)
(0.475 -1.30501e-12 0)
(0.475 -7.76789e-13 0)
(0.475 -4.28659e-13 0)
(0.475 -2.14471e-13 0)
(0.475 -9.51794e-14 0)
(0.475 -4.229e-14 0)
(0.475 -3.80188e-14 0)
(0.475 -7.3881e-14 0)
(0.475 -1.50364e-13 0)
(0.475 -2.76363e-13 0)
(0.475 -4.72766e-13 0)
(0.475 -7.5897e-13 0)
(0.475 -1.20603e-12 0)
(0.475 -1.81005e-12 0)
(0.475 -1.94365e-12 0)
(0.525 -2.66246e-12 0)
(0.525 -2.66754e-12 0)
(0.525 -2.18363e-12 0)
(0.525 -1.59513e-12 0)
(0.525 -1.11132e-12 0)
(0.525 -7.17498e-13 0)
(0.525 -4.23436e-13 0)
(0.525 -2.21605e-13 0)
(0.525 -9.63807e-14 0)
(0.525 -3.10626e-14 0)
(0.525 -1.26378e-14 0)
(0.525 -3.44796e-14 0)
(0.525 -9.74834e-14 0)
(0.525 -2.12864e-13 0)
(0.525 -4.05513e-13 0)
(0.525 -7.22409e-13 0)
(0.525 -1.21941e-12 0)
(0.525 -1.99955e-12 0)
(0.525 -3.11175e-12 0)
(0.525 -3.23548e-12 0)
(0.575 -2.61727e-13 0)
(0.575 6.6845e-14 0)
(0.575 -5.40434e-14 0)
(0.575 -1.05592e-13 0)
(0.575 -1.30711e-13 0)
(0.575 -1.05867e-13 0)
(0.575 -5.57496e-14 0)
(0.575 -7.01333e-15 0)
(0.575 2.51143e-14 0)
(0.575 3.45093e-14 0)
(0.575 1.83736e-14 0)
(0.575 -2.77508e-14 0)
(0.575 -1.13858e-13 0)
(0.575 -2.606e-13 0)
(0.575 -5.06269e-13 0)
(0.575 -9.2006e-13 0)
(0.575 -1.59064e-12 0)
(0.575 -2.64861e-12 0)
(0.575 -4.20878e-12 0)
(0.575 -4.33857e-12 0)
(0.625 1.97762e-12 0)
(0.625 2.61154e-12 0)
(0.625 1.90315e-12 0)
(0.625 1.2462e-12 0)
(0.625 7.52152e-13 0)
(0.625 4.4086e-13 0)
(0.625 2.70283e-13 0)
(0.625 1.8124e-13 0)
(0.625 1.30185e-13 0)
(0.625 9.05012e-14 0)
(0.625 4.52609e-14 0)
(0.625 -1.9487e-14 0)
(0.625 -1.20942e-13 0)
(0.625 -2.86701e-13 0)
(0.625 -5.64678e-13 0)
(0.625 -1.04004e-12 0)
(0.625 -1.82808e-12 0)
(0.625 -3.08262e-12 0)
(0.625 -4.99921e-12 0)
(0.625 -5.15352e-12 0)
(0.675 3.84569e-12 0)
(0.675 4.70926e-12 0)
(0.675 3.4561e-12 0)
(0.675 2.28396e-12 0)
(0.675 1.41501e-12 0)
(0.675 8.437e-13 0)
(0.675 5.05959e-13 0)
(0.675 3.14237e-13 0)
(0.675 2.02204e-13 0)
(0.675 1.2761e-13 0)
(0.675 6.32621e-14 0)
(0.675 -1.14201e-14 0)
(0.675 -1.18015e-13 0)
(0.675 -2.8755e-13 0)
(0.675 -5.7257e-13 0)
(0.675 -1.06656e-12 0)
(0.675 -1.90264e-12 0)
(0.675 -3.25215e-12 0)
(0.675 -5.40433e-12 0)
(0.675 -5.60161e-12 0)
(0.725 5.15008e-12 0)
(0.725 6.12311e-12 0)
(0.725 4.40592e-12 0)
(0.725 2.86791e-12 0)
(0.725 1.76798e-12 0)
(0.725 1.04794e-12 0)
(0.725 6.19453e-13 0)
(0.725 3.73977e-13 0)
(0.725 2.31223e-13 0)
(0.725 1.40402e-13 0)
(0.725 6.94632e-14 0)
(0.725 -4.96195e-15 0)
(0.725 -1.05585e-13 0)
(0.725 -2.63127e-13 0)
(0.725 -5.28922e-13 0)
(0.725 -9.9581e-13 0)
(0.725 -1.80418e-12 0)
(0.725 -3.13361e-12 0)
(0.725 -5.3732e-12 0)
(0.725 -5.6293e-12 0)
(0.775 5.73584e-12 0)
(0.775 6.65962e-12 0)
(0.775 4.61335e-12 0)
(0.775 2.92158e-12 0)
(0.775 1.77248e-12 0)
(0.775 1.03584e-12 0)
(0.775 6.03302e-13 0)
(0.775 3.57622e-13 0)
(0.775 2.16297e-13 0)
(0.775 1.28728e-13 0)
(0.775 6.37269e-14 0)
(0.775 -9.37649e-16 0)
(0.775 -8.5535e-14 0)
(0.775 -2.17003e-13 0)
(0.775 -4.40038e-13 0)
(0.775 -8.37481e-13 0)
(0.775 -1.54417e-12 0)
(0.775 -2.73354e-12 0)
(0.775 -4.88864e-12 0)
(0.775 -5.21349e-12 0)
(0.825 5.48531e-12 0)
(0.825 6.18686e-12 0)
(0.825 4.03584e-12 0)
(0.825 2.45684e-12 0)
(0.825 1.45698e-12 0)
(0.825 8.34254e-13 0)
(0.825 4.77823e-13 0)
(0.825 2.79098e-13 0)
(0.825 1.66436e-13 0)
(0.825 9.80228e-14 0)
(0.825 4.86047e-14 0)
(0.825 8.12807e-16 0)
(0.825 -6.07276e-14 0)
(0.825 -1.56231e-13 0)
(0.825 -3.19324e-13 0)
(0.825 -6.14873e-13 0)
(0.825 -1.15736e-12 0)
(0.825 -2.09346e-12 0)
(0.825 -3.97046e-12 0)
(0.825 -4.36175e-12 0)
(0.875 4.38094e-12 0)
(0.875 4.72594e-12 0)
(0.875 2.79703e-12 0)
(0.875 1.61396e-12 0)
(0.875 9.31047e-13 0)
(0.875 5.18984e-13 0)
(0.875 2.91518e-13 0)
(0.875 1.68158e-13 0)
(0.875 9.9434e-14 0)
(0.875 5.83274e-14 0)
(0.875 2.90228e-14 0)
(0.875 9.81653e-16 0)
(0.875 -3.52871e-14 0)
(0.875 -9.18239e-14 0)
(0.875 -1.88559e-13 0)
(0.875 -3.66965e-13 0)
(0.875 -7.08501e-13 0)
(0.875 -1.30868e-12 0)
(0.875 -2.71151e-12 0)
(0.875 -3.13436e-12 0)
(0.925 2.60152e-12 0)
(0.925 2.61994e-12 0)
(0.925 1.31641e-12 0)
(0.925 6.98975e-13 0)
(0.925 3.90149e-13 0)
(0.925 2.08571e-13 0)
(0.925 1.13901e-13 0)
(0.925 6.49408e-14 0)
(0.925 3.83582e-14 0)
(0.925 2.27012e-14 0)
(0.925 1.167e-14 0)
(0.925 8.25162e-16 0)
(0.925 -1.37187e-14 0)
(0.925 -3.67336e-14 0)
(0.925 -7.60485e-14 0)
(0.925 -1.50132e-13 0)
(0.925 -3.0069e-13 0)
(0.925 -5.63958e-13 0)
(0.925 -1.3553e-12 0)
(0.925 -1.70946e-12 0)
(0.975 8.03996e-13 0)
(0.975 7.52025e-13 0)
(0.975 3.011e-13 0)
(0.975 1.40268e-13 0)
(0.975 7.52279e-14 0)
(0.975 3.7452e-14 0)
(0.975 1.95819e-14 0)
(0.975 1.1046e-14 0)
(0.975 6.53106e-15 0)
(0.975 3.89618e-15 0)
(0.975 2.05673e-15 0)
(0.975 1.39825e-16 0)
(0.975 -2.79261e-15 0)
(0.975 -7.56231e-15 0)
(0.975 -1.52132e-14 0)
(0.975 -2.99145e-14 0)
(0.975 -6.30774e-14 0)
(0.975 -1.18532e-13 0)
(0.975 -3.53379e-13 0)
(0.975 -4.93437e-13 0)
)
;

boundaryField
{
    top
    {
        type            fixedValue;
        value           uniform (1 0 0);
    }
    bottom
    {
        type            fixedValue;
        value           uniform (0 0 0);
    }
    inlet
    {
        type            zeroGradient;
    }
    outlet
    {
        type            zeroGradient;
    }
    frontAndBack
    {
        type            empty;
    }
}


// ************************************************************************* //
