/*--------------------------------*- C++ -*----------------------------------*\
  =========                 |
  \\      /  F ield         | OpenFOAM: The Open Source CFD Toolbox
   \\    /   O peration     | Website:  https://openfoam.org
    \\  /    A nd           | Version:  9
     \\/     M anipulation  |
\*---------------------------------------------------------------------------*/
FoamFile
{
    format      ascii;
    class       volScalarField;
    location    "2.5";
    object      p;
}
// * * * * * * * * * * * * * * * * * * * * * * * * * * * * * * * * * * * * * //

dimensions      [0 2 -2 0 0 0 0];

internalField   nonuniform List<scalar> 
400
(
7.3285e-09
1.21456e-08
1.17445e-08
1.11712e-08
1.02299e-08
9.11503e-09
7.95363e-09
6.77203e-09
5.58992e-09
4.41724e-09
3.24867e-09
2.07671e-09
8.98657e-10
-2.84969e-10
-1.47295e-09
-2.66755e-09
-3.83807e-09
-4.90025e-09
-6.24153e-09
-3.94318e-09
6.95018e-09
1.15711e-08
1.11343e-08
1.08056e-08
1.0008e-08
8.98124e-09
7.87622e-09
6.72875e-09
5.5667e-09
4.40562e-09
3.24374e-09
2.07606e-09
9.01959e-10
-2.75701e-10
-1.45128e-09
-2.62075e-09
-3.73878e-09
-4.67241e-09
-6.09283e-09
-3.84209e-09
7.02712e-09
1.16217e-08
1.07937e-08
1.05706e-08
9.85014e-09
8.87688e-09
7.81185e-09
6.69062e-09
5.54467e-09
4.39314e-09
3.23708e-09
2.07348e-09
9.03106e-10
-2.69631e-10
-1.4364e-09
-2.59167e-09
-3.68845e-09
-4.56222e-09
-6.28904e-09
-3.98348e-09
7.29693e-09
1.21283e-08
1.07221e-08
1.04714e-08
9.76477e-09
8.80918e-09
7.76519e-09
6.66006e-09
5.52485e-09
4.38017e-09
3.22875e-09
2.06869e-09
9.01364e-10
-2.68247e-10
-1.43112e-09
-2.58436e-09
-3.68877e-09
-4.57025e-09
-6.68586e-09
-4.20225e-09
7.59244e-09
1.28301e-08
1.07895e-08
1.04488e-08
9.72299e-09
8.76434e-09
7.72956e-09
6.63382e-09
5.50581e-09
4.36639e-09
3.21899e-09
2.06206e-09
8.97088e-10
-2.7093e-10
-1.43351e-09
-2.59208e-09
-3.71949e-09
-4.63525e-09
-7.1297e-09
-4.41015e-09
7.86528e-09
1.35884e-08
1.09259e-08
1.04677e-08
9.7073e-09
8.73327e-09
7.70017e-09
6.60974e-09
5.48691e-09
4.35188e-09
3.20811e-09
2.05399e-09
8.90763e-10
-2.76754e-10
-1.44117e-09
-2.60862e-09
-3.7647e-09
-4.72023e-09
-7.5368e-09
-4.57929e-09
8.10597e-09
1.43265e-08
1.10914e-08
1.05067e-08
9.70559e-09
8.7099e-09
7.67392e-09
6.58652e-09
5.4679e-09
4.33684e-09
3.19647e-09
2.04488e-09
8.82993e-10
-2.84612e-10
-1.45172e-09
-2.6285e-09
-3.81289e-09
-4.80271e-09
-7.8645e-09
-4.7048e-09
8.30496e-09
1.49814e-08
1.12534e-08
1.0547e-08
9.7069e-09
8.6886e-09
7.64815e-09
6.56306e-09
5.44849e-09
4.32141e-09
3.18441e-09
2.03526e-09
8.74571e-10
-2.93132e-10
-1.46248e-09
-2.64641e-09
-3.85362e-09
-4.86585e-09
-8.08317e-09
-4.78199e-09
8.45626e-09
1.55042e-08
1.13857e-08
1.05739e-08
9.70262e-09
8.66521e-09
7.62103e-09
6.5387e-09
5.42864e-09
4.30582e-09
3.17233e-09
2.0257e-09
8.66392e-10
-3.00824e-10
-1.47087e-09
-2.65767e-09
-3.87847e-09
-4.89726e-09
-8.17601e-09
-4.80958e-09
8.55537e-09
1.5859e-08
1.14702e-08
1.05782e-08
9.68766e-09
8.63766e-09
7.59203e-09
6.51356e-09
5.40866e-09
4.29048e-09
3.16069e-09
2.0168e-09
8.59319e-10
-3.06354e-10
-1.47473e-09
-2.65882e-09
-3.88163e-09
-4.88982e-09
-8.13679e-09
-4.78789e-09
8.59906e-09
1.60225e-08
1.14971e-08
1.05562e-08
9.66068e-09
8.60621e-09
7.56202e-09
6.48853e-09
5.38931e-09
4.27596e-09
3.14997e-09
2.00906e-09
8.54026e-10
-3.08766e-10
-1.47269e-09
-2.64797e-09
-3.86038e-09
-4.84128e-09
-7.96857e-09
-4.71904e-09
8.58444e-09
1.59835e-08
1.14639e-08
1.05097e-08
9.62377e-09
8.57317e-09
7.53306e-09
6.4652e-09
5.37165e-09
4.26297e-09
3.14065e-09
2.00286e-09
8.5089e-10
-3.07663e-10
-1.46439e-09
-2.6251e-09
-3.81511e-09
-4.75397e-09
-7.68228e-09
-4.60623e-09
8.50888e-09
1.57429e-08
1.13769e-08
1.04455e-08
9.58217e-09
8.54252e-09
7.5081e-09
6.44556e-09
5.35696e-09
4.25225e-09
3.13314e-09
1.99841e-09
8.49921e-10
-3.0331e-10
-1.45063e-09
-2.59211e-09
-3.7494e-09
-4.63458e-09
-7.29597e-09
-4.45393e-09
8.37152e-09
1.53166e-08
1.12505e-08
1.03753e-08
9.54361e-09
8.51937e-09
7.49045e-09
6.43174e-09
5.34651e-09
4.24449e-09
3.12775e-09
1.99567e-09
8.50741e-10
-2.96652e-10
-1.43336e-09
-2.55286e-09
-3.67003e-09
-4.49409e-09
-6.83481e-09
-4.26825e-09
8.17275e-09
1.47368e-08
1.11089e-08
1.0315e-08
9.51766e-09
8.50913e-09
7.48329e-09
6.42556e-09
5.3413e-09
4.24019e-09
3.12459e-09
1.99441e-09
8.52628e-10
-2.89222e-10
-1.41554e-09
-2.51289e-09
-3.58665e-09
-4.34758e-09
-6.33094e-09
-4.05717e-09
7.91815e-09
1.40558e-08
1.09837e-08
1.0283e-08
9.514e-09
8.5167e-09
7.48891e-09
6.42811e-09
5.34183e-09
4.2395e-09
3.12357e-09
1.99421e-09
8.54614e-10
-2.8294e-10
-1.40077e-09
-2.47892e-09
-3.51112e-09
-4.21343e-09
-5.82345e-09
-3.83114e-09
7.61199e-09
1.33451e-08
1.09158e-08
1.02978e-08
9.54159e-09
8.54535e-09
7.50834e-09
6.43954e-09
5.34798e-09
4.24224e-09
3.12441e-09
1.99453e-09
8.55603e-10
-2.79904e-10
-1.39291e-09
-2.45822e-09
-3.45688e-09
-4.11379e-09
-5.35836e-09
-3.60142e-09
7.29885e-09
1.27454e-08
1.09741e-08
1.03888e-08
9.61198e-09
8.59942e-09
7.54265e-09
6.45991e-09
5.35954e-09
4.24814e-09
3.12677e-09
1.99474e-09
8.54291e-10
-2.82634e-10
-1.39656e-09
-2.45972e-09
-3.44228e-09
-4.08426e-09
-5.01193e-09
-3.39877e-09
7.12136e-09
1.25192e-08
1.12862e-08
1.06044e-08
9.74545e-09
8.68607e-09
7.59429e-09
6.48994e-09
5.37679e-09
4.25741e-09
3.1307e-09
1.99453e-09
8.49735e-10
-2.93273e-10
-1.41642e-09
-2.49396e-09
-3.49162e-09
-4.18188e-09
-4.91883e-09
-3.31855e-09
7.34193e-09
1.28976e-08
1.18534e-08
1.09371e-08
9.93227e-09
8.7965e-09
7.6572e-09
6.52591e-09
5.3975e-09
4.2688e-09
3.13565e-09
1.9939e-09
8.42613e-10
-3.10179e-10
-1.44969e-09
-2.55644e-09
-3.60233e-09
-4.40462e-09
-5.16141e-09
-3.50338e-09
)
;

boundaryField
{
    top
    {
        type            zeroGradient;
    }
    bottom
    {
        type            zeroGradient;
    }
    inlet
    {
        type            fixedValue;
        value           uniform 0;
    }
    outlet
    {
        type            fixedValue;
        value           uniform 0;
    }
    frontAndBack
    {
        type            empty;
    }
}


// ************************************************************************* //
