/*--------------------------------*- C++ -*----------------------------------*\
  =========                 |
  \\      /  F ield         | OpenFOAM: The Open Source CFD Toolbox
   \\    /   O peration     | Website:  https://openfoam.org
    \\  /    A nd           | Version:  9
     \\/     M anipulation  |
\*---------------------------------------------------------------------------*/
FoamFile
{
    format      ascii;
    class       surfaceScalarField;
    location    "2.5";
    object      phi;
}
// * * * * * * * * * * * * * * * * * * * * * * * * * * * * * * * * * * * * * //

dimensions      [0 3 -1 0 0 0 0];

internalField   nonuniform List<scalar> 
760
(
1.24999e-06
-4.48847e-14
1.24999e-06
-3.73525e-14
1.24999e-06
-1.77932e-14
1.24999e-06
-1.01173e-14
1.24999e-06
-5.80757e-15
1.24999e-06
-3.19177e-15
1.24999e-06
-1.74918e-15
1.24999e-06
-9.16011e-16
1.24999e-06
-4.47216e-16
1.24999e-06
-2.03663e-16
1.24999e-06
-7.6471e-17
1.24999e-06
1.66303e-18
1.24999e-06
7.35977e-17
1.24999e-06
1.90208e-16
1.24999e-06
4.50745e-16
1.24999e-06
1.13823e-15
1.24999e-06
2.71432e-15
1.24999e-06
6.0712e-15
1.24999e-06
1.91183e-14
2.20689e-14
3.74998e-06
-1.0805e-13
3.74998e-06
-1.01252e-13
3.74998e-06
-5.78907e-14
3.74998e-06
-3.44538e-14
3.74998e-06
-2.03322e-14
3.74998e-06
-1.15692e-14
3.74998e-06
-6.46247e-15
3.74998e-06
-3.4796e-15
3.74998e-06
-1.77057e-15
3.74998e-06
-8.26399e-16
3.74998e-06
-3.08187e-16
3.74998e-06
3.71664e-18
3.74998e-06
2.74602e-16
3.74998e-06
6.99705e-16
3.74998e-06
1.62863e-15
3.74998e-06
3.86821e-15
3.74998e-06
8.86574e-15
3.74998e-06
1.90371e-14
3.74998e-06
4.63961e-14
4.90325e-14
6.24996e-06
-1.6434e-13
6.24996e-06
-1.64876e-13
6.24996e-06
-1.04808e-13
6.24996e-06
-6.49023e-14
6.24996e-06
-3.9329e-14
6.24996e-06
-2.29209e-14
6.24996e-06
-1.30083e-14
6.24996e-06
-7.11534e-15
6.24996e-06
-3.68997e-15
6.24996e-06
-1.75587e-15
6.24996e-06
-6.78467e-16
6.24996e-06
-3.75552e-17
6.24996e-06
4.94456e-16
6.24996e-06
1.29434e-15
6.24996e-06
2.99765e-15
6.24996e-06
6.91986e-15
6.24996e-06
1.53651e-14
6.24996e-06
3.17824e-14
6.24996e-06
6.7321e-14
6.73712e-14
8.74995e-06
-2.06488e-13
8.74995e-06
-2.15065e-13
8.74995e-06
-1.46388e-13
8.74995e-06
-9.39311e-14
8.74995e-06
-5.82947e-14
8.74995e-06
-3.46491e-14
8.74995e-06
-1.99349e-14
8.74995e-06
-1.10341e-14
8.74995e-06
-5.79165e-15
8.74995e-06
-2.79557e-15
8.74995e-06
-1.11996e-15
8.74995e-06
-1.43155e-16
8.74995e-06
6.2003e-16
8.74995e-06
1.70447e-15
8.74995e-06
3.96488e-15
8.74995e-06
9.02996e-15
8.74995e-06
1.96618e-14
8.74995e-06
3.93164e-14
8.74995e-06
7.68894e-14
7.4571e-14
1.12499e-05
-2.30191e-13
1.12499e-05
-2.45107e-13
1.12499e-05
-1.7513e-13
1.12499e-05
-1.15732e-13
1.12499e-05
-7.33496e-14
1.12499e-05
-4.43289e-14
1.12499e-05
-2.58036e-14
1.12499e-05
-1.44091e-14
1.12499e-05
-7.62116e-15
1.12499e-05
-3.71384e-15
1.12499e-05
-1.53613e-15
1.12499e-05
-3.08799e-16
1.12499e-05
5.66502e-16
1.12499e-05
1.71485e-15
1.12499e-05
4.07776e-15
1.12499e-05
9.33556e-15
1.12499e-05
2.02355e-14
1.12499e-05
3.9583e-14
1.12499e-05
7.38124e-14
6.99643e-14
1.37499e-05
-2.34305e-13
1.37499e-05
-2.52717e-13
1.37499e-05
-1.87092e-13
1.37499e-05
-1.26632e-13
1.37499e-05
-8.17093e-14
1.37499e-05
-5.00799e-14
1.37499e-05
-2.94291e-14
1.37499e-05
-1.65322e-14
1.37499e-05
-8.77434e-15
1.37499e-05
-4.29385e-15
1.37499e-05
-1.82459e-15
1.37499e-05
-5.07541e-16
1.37499e-05
2.98003e-16
1.37499e-05
1.21497e-15
1.37499e-05
3.12048e-15
1.37499e-05
7.48167e-15
1.37499e-05
1.66555e-14
1.37499e-05
3.24399e-14
1.37499e-05
5.92698e-14
5.47991e-14
1.62499e-05
-2.19606e-13
1.62499e-05
-2.38352e-13
1.62499e-05
-1.81218e-13
1.62499e-05
-1.25014e-13
1.62499e-05
-8.18975e-14
1.62499e-05
-5.07837e-14
1.62499e-05
-3.00569e-14
1.62499e-05
-1.69296e-14
1.62499e-05
-8.97033e-15
1.62499e-05
-4.37703e-15
1.62499e-05
-1.90097e-15
1.62499e-05
-6.98575e-16
1.62499e-05
-1.69067e-16
1.62499e-05
2.1336e-16
1.62499e-05
1.12075e-15
1.62499e-05
3.59453e-15
1.62499e-05
9.32973e-15
1.62499e-05
1.90354e-14
1.62499e-05
3.56095e-14
3.11979e-14
1.87499e-05
-1.88471e-13
1.87499e-05
-2.04543e-13
1.87499e-05
-1.58695e-13
1.87499e-05
-1.11138e-13
1.87499e-05
-7.37608e-14
1.87499e-05
-4.61831e-14
1.87499e-05
-2.74576e-14
1.87499e-05
-1.54367e-14
1.87499e-05
-8.10216e-15
1.87499e-05
-3.896e-15
1.87499e-05
-1.71916e-15
1.87499e-05
-8.39509e-16
1.87499e-05
-7.74429e-16
1.87499e-05
-1.1766e-15
1.87499e-05
-1.68551e-15
1.87499e-05
-1.83129e-15
1.87499e-05
-7.37617e-16
1.87499e-05
1.26155e-15
1.87499e-05
5.87042e-15
1.90651e-15
2.12499e-05
-1.44359e-13
2.12499e-05
-1.55256e-13
2.12499e-05
-1.2246e-13
2.12499e-05
-8.68477e-14
2.12499e-05
-5.83655e-14
2.12499e-05
-3.68616e-14
2.12499e-05
-2.19445e-14
2.12499e-05
-1.22205e-14
2.12499e-05
-6.25706e-15
2.12499e-05
-2.89046e-15
2.12499e-05
-1.28409e-15
2.12499e-05
-8.98436e-16
2.12499e-05
-1.43056e-15
2.12499e-05
-2.76668e-15
2.12499e-05
-4.91997e-15
2.12499e-05
-8.06216e-15
2.12499e-05
-1.22064e-14
2.12499e-05
-1.86194e-14
2.12499e-05
-2.66823e-14
-3.01077e-14
2.37499e-05
-9.15646e-14
2.37499e-05
-9.55118e-14
2.37499e-05
-7.67462e-14
2.37499e-05
-5.52364e-14
2.37499e-05
-3.77829e-14
2.37499e-05
-2.41263e-14
2.37499e-05
-1.43106e-14
2.37499e-05
-7.74938e-15
2.37499e-05
-3.70278e-15
2.37499e-05
-1.50305e-15
2.37499e-05
-6.53973e-16
2.37499e-05
-8.62763e-16
2.37499e-05
-2.04159e-15
2.37499e-05
-4.33231e-15
2.37499e-05
-8.13479e-15
2.37499e-05
-1.42619e-14
2.37499e-05
-2.36141e-14
2.37499e-05
-3.82749e-14
2.37499e-05
-5.88025e-14
-6.18361e-14
2.62499e-05
-3.49203e-14
2.62499e-05
-3.10369e-14
2.62499e-05
-2.66777e-14
2.62499e-05
-2.02624e-14
2.62499e-05
-1.47967e-14
2.62499e-05
-9.80389e-15
2.62499e-05
-5.69874e-15
2.62499e-05
-2.713e-15
2.62499e-05
-8.41243e-16
2.62499e-05
4.51667e-17
2.62499e-05
6.92076e-17
2.62499e-05
-7.42246e-16
2.62499e-05
-2.52082e-15
2.62499e-05
-5.65094e-15
2.62499e-05
-1.0885e-14
2.62499e-05
-1.96121e-14
2.62499e-05
-3.35582e-14
2.62499e-05
-5.55159e-14
2.62499e-05
-8.74696e-14
-9.04278e-14
2.87499e-05
2.04732e-14
2.87499e-05
3.20466e-14
2.87499e-05
2.21447e-14
2.87499e-05
1.36763e-14
2.87499e-05
7.45838e-15
2.87499e-05
4.02933e-15
2.87499e-05
2.58405e-15
2.87499e-05
2.09701e-15
2.87499e-05
1.86418e-15
2.87499e-05
1.49623e-15
2.87499e-05
7.59698e-16
2.87499e-05
-5.65645e-16
2.87499e-05
-2.80375e-15
2.87499e-05
-6.53577e-15
2.87499e-05
-1.2791e-14
2.87499e-05
-2.34143e-14
2.87499e-05
-4.08398e-14
2.87499e-05
-6.8465e-14
2.87499e-05
-1.10034e-13
-1.1333e-13
3.12499e-05
6.95058e-14
3.12499e-05
8.75396e-14
3.12499e-05
6.40886e-14
3.12499e-05
4.22174e-14
3.12499e-05
2.59181e-14
3.12499e-05
1.53657e-14
3.12499e-05
9.28841e-15
3.12499e-05
5.93062e-15
3.12499e-05
3.97768e-15
3.12499e-05
2.60702e-15
3.12499e-05
1.29491e-15
3.12499e-05
-3.72073e-16
3.12499e-05
-2.8556e-15
3.12499e-05
-6.8618e-15
3.12499e-05
-1.35887e-14
3.12499e-05
-2.51715e-14
3.12499e-05
-4.45784e-14
3.12499e-05
-7.56885e-14
3.12499e-05
-1.24338e-13
-1.28416e-13
3.37499e-05
1.07402e-13
3.37499e-05
1.29553e-13
3.37499e-05
9.39977e-14
3.37499e-05
6.15861e-14
3.37499e-05
3.80437e-14
3.37499e-05
2.26091e-14
3.37499e-05
1.34519e-14
3.37499e-05
8.2271e-15
3.37499e-05
5.18043e-15
3.37499e-05
3.20187e-15
3.37499e-05
1.58366e-15
3.37499e-05
-1.99436e-16
3.37499e-05
-2.67395e-15
3.37499e-05
-6.58326e-15
3.37499e-05
-1.31661e-14
3.37499e-05
-2.4649e-14
3.37499e-05
-4.43044e-14
3.37499e-05
-7.63121e-14
3.37499e-05
-1.28836e-13
-1.34109e-13
3.62499e-05
1.29957e-13
3.62499e-05
1.52931e-13
3.62499e-05
1.07857e-13
3.62499e-05
6.91943e-14
3.62499e-05
4.23064e-14
3.62499e-05
2.48944e-14
3.62499e-05
1.46067e-14
3.62499e-05
8.73836e-15
3.62499e-05
5.34429e-15
3.62499e-05
3.21435e-15
3.62499e-05
1.58936e-15
3.62499e-05
-7.37663e-17
3.62499e-05
-2.28743e-15
3.62499e-05
-5.74219e-15
3.62499e-05
-1.15849e-14
3.62499e-05
-2.19184e-14
3.62499e-05
-4.00345e-14
3.62499e-05
-7.01411e-14
3.62499e-05
-1.22716e-13
-1.29481e-13
3.87499e-05
1.34194e-13
3.87499e-05
1.54038e-13
3.87499e-05
1.03581e-13
3.87499e-05
6.43417e-14
3.87499e-05
3.86066e-14
3.87499e-05
2.23493e-14
3.87499e-05
1.29152e-14
3.87499e-05
7.60393e-15
3.87499e-05
4.56959e-15
3.87499e-05
2.70819e-15
3.87499e-05
1.34117e-15
3.87499e-05
-2.82443e-18
3.87499e-05
-1.75257e-15
3.87499e-05
-4.46838e-15
3.87499e-05
-9.08724e-15
3.87499e-05
-1.73809e-14
3.87499e-05
-3.23397e-14
3.87499e-05
-5.77941e-14
3.87499e-05
-1.06126e-13
-1.14456e-13
4.12499e-05
1.18595e-13
4.12499e-05
1.31569e-13
4.12499e-05
8.21931e-14
4.12499e-05
4.88283e-14
4.12499e-05
2.86056e-14
4.12499e-05
1.61932e-14
4.12499e-05
9.20005e-15
4.12499e-05
5.3441e-15
4.12499e-05
3.17526e-15
4.12499e-05
1.86814e-15
4.12499e-05
9.29612e-16
4.12499e-05
2.34266e-17
4.12499e-05
-1.1499e-15
4.12499e-05
-2.97167e-15
4.12499e-05
-6.08726e-15
4.12499e-05
-1.17737e-14
4.12499e-05
-2.2394e-14
4.12499e-05
-4.08936e-14
4.12499e-05
-8.04312e-14
-8.99804e-14
4.375e-05
8.48681e-14
4.375e-05
8.88187e-14
4.375e-05
4.90781e-14
4.375e-05
2.75482e-14
4.375e-05
1.57115e-14
4.375e-05
8.63776e-15
4.375e-05
4.80972e-15
4.375e-05
2.76329e-15
4.375e-05
1.63145e-15
4.375e-05
9.60502e-16
4.375e-05
4.84717e-16
4.375e-05
2.44852e-17
4.375e-05
-5.802e-16
4.375e-05
-1.52425e-15
4.375e-05
-3.14399e-15
4.375e-05
-6.14791e-15
4.375e-05
-1.20264e-14
4.375e-05
-2.23292e-14
4.375e-05
-4.89414e-14
-5.8562e-14
4.625e-05
3.75053e-14
4.625e-05
3.59599e-14
4.625e-05
1.60442e-14
4.625e-05
8.2523e-15
4.625e-05
4.62168e-15
4.625e-05
2.42371e-15
4.625e-05
1.31298e-15
4.625e-05
7.48147e-16
4.625e-05
4.42752e-16
4.625e-05
2.65478e-16
4.625e-05
1.41278e-16
4.625e-05
1.67975e-17
4.625e-05
-1.58174e-16
4.625e-05
-4.35186e-16
4.625e-05
-9.04223e-16
4.625e-05
-1.78767e-15
4.625e-05
-3.64488e-15
4.625e-05
-6.74236e-15
4.625e-05
-1.78989e-14
-2.42405e-14
4.875e-05
4.875e-05
4.875e-05
4.875e-05
4.875e-05
4.875e-05
4.875e-05
4.875e-05
4.875e-05
4.875e-05
4.875e-05
4.875e-05
4.875e-05
4.875e-05
4.875e-05
4.875e-05
4.875e-05
4.875e-05
4.875e-05
)
;

boundaryField
{
    top
    {
        type            calculated;
        value           uniform 0;
    }
    bottom
    {
        type            calculated;
        value           uniform 0;
    }
    inlet
    {
        type            calculated;
        value           nonuniform List<scalar> 
20
(
-1.24999e-06
-3.74998e-06
-6.24996e-06
-8.74995e-06
-1.12499e-05
-1.37499e-05
-1.62499e-05
-1.87499e-05
-2.12499e-05
-2.37499e-05
-2.62499e-05
-2.87499e-05
-3.12499e-05
-3.37499e-05
-3.62499e-05
-3.87499e-05
-4.12499e-05
-4.375e-05
-4.625e-05
-4.875e-05
)
;
    }
    outlet
    {
        type            calculated;
        value           nonuniform List<scalar> 
20
(
1.24999e-06
3.74998e-06
6.24996e-06
8.74995e-06
1.12499e-05
1.37499e-05
1.62499e-05
1.87499e-05
2.12499e-05
2.37499e-05
2.62499e-05
2.87499e-05
3.12499e-05
3.37499e-05
3.62499e-05
3.87499e-05
4.12499e-05
4.375e-05
4.625e-05
4.875e-05
)
;
    }
    frontAndBack
    {
        type            empty;
        value           nonuniform List<scalar> 0();
    }
}


// ************************************************************************* //
