/*--------------------------------*- C++ -*----------------------------------*\
  =========                 |
  \\      /  F ield         | OpenFOAM: The Open Source CFD Toolbox
   \\    /   O peration     | Website:  https://openfoam.org
    \\  /    A nd           | Version:  9
     \\/     M anipulation  |
\*---------------------------------------------------------------------------*/
FoamFile
{
    format      ascii;
    class       volVectorField;
    location    "2.5";
    object      U;
}
// * * * * * * * * * * * * * * * * * * * * * * * * * * * * * * * * * * * * * //

dimensions      [0 1 -1 0 0 0 0];

internalField   nonuniform List<vector> 
400
(
(0.0249998 -2.19632e-10 0)
(0.0249998 -1.75654e-10 0)
(0.0249998 -7.37727e-11 0)
(0.0249998 -3.92941e-11 0)
(0.0249998 -2.16683e-11 0)
(0.0249998 -1.14768e-11 0)
(0.0249998 -6.18506e-12 0)
(0.0249998 -3.09453e-12 0)
(0.0249998 -1.39531e-12 0)
(0.0249998 -5.96032e-13 0)
(0.0249998 -2.15525e-13 0)
(0.0249998 3.16955e-14 0)
(0.0249998 2.88476e-13 0)
(0.0249998 7.23956e-13 0)
(0.0249998 1.72367e-12 0)
(0.0249998 4.57844e-12 0)
(0.0249998 1.14297e-11 0)
(0.0249998 2.72729e-11 0)
(0.0249998 9.63582e-11 0)
(0.0249998 1.12999e-10 0)
(0.0749995 -7.56289e-10 0)
(0.0749995 -6.72332e-10 0)
(0.0749995 -3.50941e-10 0)
(0.0749995 -2.01425e-10 0)
(0.0749995 -1.16324e-10 0)
(0.0749995 -6.4667e-11 0)
(0.0749995 -3.55531e-11 0)
(0.0749995 -1.88053e-11 0)
(0.0749995 -9.32752e-12 0)
(0.0749995 -4.23465e-12 0)
(0.0749995 -1.50735e-12 0)
(0.0749995 1.42689e-13 0)
(0.0749995 1.63062e-12 0)
(0.0749995 4.05289e-12 0)
(0.0749995 9.48362e-12 0)
(0.0749995 2.31911e-11 0)
(0.0749995 5.45255e-11 0)
(0.0749995 1.21351e-10 0)
(0.0749995 3.29792e-10 0)
(0.0749995 3.62051e-10 0)
(0.124999 -1.37547e-09 0)
(0.124999 -1.33577e-09 0)
(0.124999 -8.06802e-10 0)
(0.124999 -4.88157e-10 0)
(0.124999 -2.91182e-10 0)
(0.124999 -1.67441e-10 0)
(0.124999 -9.41625e-11 0)
(0.124999 -5.10298e-11 0)
(0.124999 -2.61853e-11 0)
(0.124999 -1.23284e-11 0)
(0.124999 -4.6599e-12 0)
(0.124999 -4.07469e-14 0)
(0.124999 3.93496e-12 0)
(0.124999 1.00902e-11 0)
(0.124999 2.337e-11 0)
(0.124999 5.45809e-11 0)
(0.124999 1.2296e-10 0)
(0.124999 2.59447e-10 0)
(0.124999 5.83703e-10 0)
(0.124999 6.0033e-10 0)
(0.174999 -1.89259e-09 0)
(0.174999 -1.93563e-09 0)
(0.174999 -1.27635e-09 0)
(0.174999 -8.03956e-10 0)
(0.174999 -4.92498e-10 0)
(0.174999 -2.89593e-10 0)
(0.174999 -1.65335e-10 0)
(0.174999 -9.0952e-11 0)
(0.174999 -4.74718e-11 0)
(0.174999 -2.27589e-11 0)
(0.174999 -8.93497e-12 0)
(0.174999 -7.48758e-13 0)
(0.174999 5.91849e-12 0)
(0.174999 1.57345e-11 0)
(0.174999 3.63889e-11 0)
(0.174999 8.31401e-11 0)
(0.174999 1.82312e-10 0)
(0.174999 3.7007e-10 0)
(0.174999 7.47346e-10 0)
(0.174999 7.37344e-10 0)
(0.224999 -2.23172e-09 0)
(0.224999 -2.35178e-09 0)
(0.224999 -1.64439e-09 0)
(0.224999 -1.07115e-09 0)
(0.224999 -6.71643e-10 0)
(0.224999 -4.02479e-10 0)
(0.224999 -2.32884e-10 0)
(0.224999 -1.29511e-10 0)
(0.224999 -6.82968e-11 0)
(0.224999 -3.31593e-11 0)
(0.224999 -1.3495e-11 0)
(0.224999 -2.15147e-12 0)
(0.224999 6.43348e-12 0)
(0.224999 1.82621e-11 0)
(0.224999 4.26677e-11 0)
(0.224999 9.68365e-11 0)
(0.224999 2.09331e-10 0)
(0.224999 4.12549e-10 0)
(0.224999 7.82048e-10 0)
(0.224999 7.51009e-10 0)
(0.274998 -2.37103e-09 0)
(0.274998 -2.54267e-09 0)
(0.274998 -1.8542e-09 0)
(0.274998 -1.24133e-09 0)
(0.274998 -7.94133e-10 0)
(0.274998 -4.83489e-10 0)
(0.274998 -2.82877e-10 0)
(0.274998 -1.58543e-10 0)
(0.274998 -8.41004e-11 0)
(0.274998 -4.11379e-11 0)
(0.274998 -1.72631e-11 0)
(0.274998 -4.06786e-12 0)
(0.274998 4.83598e-12 0)
(0.274998 1.59241e-11 0)
(0.274998 3.86496e-11 0)
(0.274998 8.93248e-11 0)
(0.274998 1.94225e-10 0)
(0.274998 3.76858e-10 0)
(0.274998 6.89925e-10 0)
(0.274998 6.47749e-10 0)
(0.324998 -2.31397e-09 0)
(0.324998 -2.50535e-09 0)
(0.324998 -1.88438e-09 0)
(0.324998 -1.28943e-09 0)
(0.324998 -8.38954e-10 0)
(0.324998 -5.17547e-10 0)
(0.324998 -3.05437e-10 0)
(0.324998 -1.71989e-10 0)
(0.324998 -9.13589e-11 0)
(0.324998 -4.47535e-11 0)
(0.324998 -1.92634e-11 0)
(0.324998 -6.13386e-12 0)
(0.324998 1.04485e-12 0)
(0.324998 8.23755e-12 0)
(0.324998 2.34924e-11 0)
(0.324998 5.97784e-11 0)
(0.324998 1.37837e-10 0)
(0.324998 2.7025e-10 0)
(0.324998 4.92499e-10 0)
(0.324998 4.4773e-10 0)
(0.374998 -2.07746e-09 0)
(0.374998 -2.25678e-09 0)
(0.374998 -1.73735e-09 0)
(0.374998 -1.20938e-09 0)
(0.374998 -7.98131e-10 0)
(0.374998 -4.97707e-10 0)
(0.374998 -2.95518e-10 0)
(0.374998 -1.66539e-10 0)
(0.374998 -8.8042e-11 0)
(0.374998 -4.28104e-11 0)
(0.374998 -1.87961e-11 0)
(0.374998 -7.8959e-12 0)
(0.374998 -4.516e-12 0)
(0.374998 -4.11917e-12 0)
(0.374998 -1.33742e-12 0)
(0.374998 1.16412e-11 0)
(0.374998 4.79151e-11 0)
(0.374998 1.09218e-10 0)
(0.374998 2.18009e-10 0)
(0.374998 1.76099e-10 0)
(0.424998 -1.69144e-09 0)
(0.424998 -1.8305e-09 0)
(0.424998 -1.43474e-09 0)
(0.424998 -1.01244e-09 0)
(0.424998 -6.76576e-10 0)
(0.424998 -4.25749e-10 0)
(0.424998 -2.53582e-10 0)
(0.424998 -1.42205e-10 0)
(0.424998 -7.40341e-11 0)
(0.424998 -3.51497e-11 0)
(0.424998 -1.56329e-11 0)
(0.424998 -8.9531e-12 0)
(0.424998 -1.10589e-11 0)
(0.424998 -1.95466e-11 0)
(0.424998 -3.25887e-11 0)
(0.424998 -4.86133e-11 0)
(0.424998 -6.32468e-11 0)
(0.424998 -8.46993e-11 0)
(0.424998 -1.01226e-10 0)
(0.424998 -1.37921e-10 0)
(0.474998 -1.19535e-09 0)
(0.474998 -1.2723e-09 0)
(0.474998 -1.01344e-09 0)
(0.474998 -7.24146e-10 0)
(0.474998 -4.90595e-10 0)
(0.474998 -3.11509e-10 0)
(0.474998 -1.85393e-10 0)
(0.474998 -1.02295e-10 0)
(0.474998 -5.11813e-11 0)
(0.474998 -2.2717e-11 0)
(0.474998 -1.00977e-11 0)
(0.474998 -9.06734e-12 0)
(0.474998 -1.76201e-11 0)
(0.474998 -3.58828e-11 0)
(0.474998 -6.59478e-11 0)
(0.474998 -1.12818e-10 0)
(0.474998 -1.81156e-10 0)
(0.474998 -2.87915e-10 0)
(0.474998 -4.3211e-10 0)
(0.474998 -4.63993e-10 0)
(0.524998 -6.35592e-10 0)
(0.524998 -6.36796e-10 0)
(0.524998 -5.21262e-10 0)
(0.524998 -3.80757e-10 0)
(0.524998 -2.65275e-10 0)
(0.524998 -1.7125e-10 0)
(0.524998 -1.01026e-10 0)
(0.524998 -5.28503e-11 0)
(0.524998 -2.29823e-11 0)
(0.524998 -7.41453e-12 0)
(0.524998 -3.0294e-12 0)
(0.524998 -8.2258e-12 0)
(0.524998 -2.32495e-11 0)
(0.524998 -5.08032e-11 0)
(0.524998 -9.67836e-11 0)
(0.524998 -1.72425e-10 0)
(0.524998 -2.91086e-10 0)
(0.524998 -4.7735e-10 0)
(0.524998 -7.42846e-10 0)
(0.524998 -7.7237e-10 0)
(0.574998 -6.24942e-11 0)
(0.574998 1.59453e-11 0)
(0.574998 -1.2892e-11 0)
(0.574998 -2.51744e-11 0)
(0.574998 -3.11851e-11 0)
(0.574998 -2.52267e-11 0)
(0.574998 -1.3244e-11 0)
(0.574998 -1.61101e-12 0)
(0.574998 6.02961e-12 0)
(0.574998 8.24253e-12 0)
(0.574998 4.37207e-12 0)
(0.574998 -6.63833e-12 0)
(0.574998 -2.71678e-11 0)
(0.574998 -6.21891e-11 0)
(0.574998 -1.20837e-10 0)
(0.574998 -2.19626e-10 0)
(0.574998 -3.79717e-10 0)
(0.574998 -6.32298e-10 0)
(0.574998 -1.00473e-09 0)
(0.574998 -1.03569e-09 0)
(0.624998 4.72074e-10 0)
(0.624998 6.23401e-10 0)
(0.624998 4.54322e-10 0)
(0.624998 2.97522e-10 0)
(0.624998 1.79579e-10 0)
(0.624998 1.05301e-10 0)
(0.624998 6.45923e-11 0)
(0.624998 4.33389e-11 0)
(0.624998 3.11277e-11 0)
(0.624998 2.1613e-11 0)
(0.624998 1.07922e-11 0)
(0.624998 -4.67263e-12 0)
(0.624998 -2.88692e-11 0)
(0.624998 -6.84316e-11 0)
(0.624998 -1.34787e-10 0)
(0.624998 -2.48275e-10 0)
(0.624998 -4.36401e-10 0)
(0.624998 -7.35901e-10 0)
(0.624998 -1.19342e-09 0)
(0.624998 -1.23024e-09 0)
(0.674998 9.18013e-10 0)
(0.674998 1.12416e-09 0)
(0.674998 8.25031e-10 0)
(0.674998 5.45247e-10 0)
(0.674998 3.37823e-10 0)
(0.674998 2.0147e-10 0)
(0.674998 1.20858e-10 0)
(0.674998 7.50921e-11 0)
(0.674998 4.83247e-11 0)
(0.674998 3.04783e-11 0)
(0.674998 1.50933e-11 0)
(0.674998 -2.74538e-12 0)
(0.674998 -2.81704e-11 0)
(0.674998 -6.86506e-11 0)
(0.674998 -1.36691e-10 0)
(0.674998 -2.54597e-10 0)
(0.674998 -4.54199e-10 0)
(0.674998 -7.76353e-10 0)
(0.674998 -1.29012e-09 0)
(0.674998 -1.33722e-09 0)
(0.724998 1.2294e-09 0)
(0.724998 1.46167e-09 0)
(0.724998 1.05176e-09 0)
(0.724998 6.84621e-10 0)
(0.724998 4.22081e-10 0)
(0.724998 2.50222e-10 0)
(0.724998 1.4795e-10 0)
(0.724998 8.9338e-11 0)
(0.724998 5.52345e-11 0)
(0.724998 3.35424e-11 0)
(0.724998 1.65891e-11 0)
(0.724998 -1.20117e-12 0)
(0.724998 -2.52115e-11 0)
(0.724998 -6.28219e-11 0)
(0.724998 -1.2627e-10 0)
(0.724998 -2.37711e-10 0)
(0.724998 -4.30699e-10 0)
(0.724998 -7.48048e-10 0)
(0.724998 -1.28269e-09 0)
(0.724998 -1.34384e-09 0)
(0.774999 1.36925e-09 0)
(0.774999 1.58976e-09 0)
(0.774999 1.10127e-09 0)
(0.774999 6.97408e-10 0)
(0.774999 4.23148e-10 0)
(0.774999 2.47336e-10 0)
(0.774999 1.44078e-10 0)
(0.774999 8.54159e-11 0)
(0.774999 5.16631e-11 0)
(0.774999 3.07654e-11 0)
(0.774999 1.52274e-11 0)
(0.774999 -2.19557e-13 0)
(0.774999 -2.04275e-11 0)
(0.774999 -5.18115e-11 0)
(0.774999 -1.05041e-10 0)
(0.774999 -1.99927e-10 0)
(0.774999 -3.68643e-10 0)
(0.774999 -6.5255e-10 0)
(0.774999 -1.16702e-09 0)
(0.774999 -1.24458e-09 0)
(0.824999 1.30944e-09 0)
(0.824999 1.47693e-09 0)
(0.824999 9.63433e-10 0)
(0.824999 5.86479e-10 0)
(0.824999 3.47828e-10 0)
(0.824999 1.99217e-10 0)
(0.824999 1.1412e-10 0)
(0.824999 6.66553e-11 0)
(0.824999 3.97494e-11 0)
(0.824999 2.34226e-11 0)
(0.824999 1.16293e-11 0)
(0.824999 2.26188e-13 0)
(0.824999 -1.4493e-11 0)
(0.824999 -3.73034e-11 0)
(0.824999 -7.6243e-11 0)
(0.824999 -1.46799e-10 0)
(0.824999 -2.76311e-10 0)
(0.824999 -4.99764e-10 0)
(0.824999 -9.47852e-10 0)
(0.824999 -1.04126e-09 0)
(0.874999 1.04578e-09 0)
(0.874999 1.12814e-09 0)
(0.874999 6.67655e-10 0)
(0.874999 3.8523e-10 0)
(0.874999 2.2225e-10 0)
(0.874999 1.23927e-10 0)
(0.874999 6.96336e-11 0)
(0.874999 4.01562e-11 0)
(0.874999 2.37271e-11 0)
(0.874999 1.39218e-11 0)
(0.874999 6.9581e-12 0)
(0.874999 2.72883e-13 0)
(0.874999 -8.41059e-12 0)
(0.874999 -2.19153e-11 0)
(0.874999 -4.50302e-11 0)
(0.874999 -8.76171e-11 0)
(0.874999 -1.69133e-10 0)
(0.874999 -3.12395e-10 0)
(0.874999 -6.47288e-10 0)
(0.874999 -7.48232e-10 0)
(0.925 6.2084e-10 0)
(0.925 6.25114e-10 0)
(0.925 3.13774e-10 0)
(0.925 1.66497e-10 0)
(0.925 9.2957e-11 0)
(0.925 4.97108e-11 0)
(0.925 2.71675e-11 0)
(0.925 1.54814e-11 0)
(0.925 9.12683e-12 0)
(0.925 5.41124e-12 0)
(0.925 2.79217e-12 0)
(0.925 2.16654e-13 0)
(0.925 -3.26131e-12 0)
(0.925 -8.73401e-12 0)
(0.925 -1.81299e-11 0)
(0.925 -3.5791e-11 0)
(0.925 -7.16522e-11 0)
(0.925 -1.34391e-10 0)
(0.925 -3.23294e-10 0)
(0.925 -4.07953e-10 0)
(0.975 1.91774e-10 0)
(0.975 1.7925e-10 0)
(0.975 7.14598e-11 0)
(0.975 3.31766e-11 0)
(0.975 1.7798e-11 0)
(0.975 8.85499e-12 0)
(0.975 4.63575e-12 0)
(0.975 2.61301e-12 0)
(0.975 1.54178e-12 0)
(0.975 9.23659e-13 0)
(0.975 4.90153e-13 0)
(0.975 3.24965e-14 0)
(0.975 -6.62262e-13 0)
(0.975 -1.77953e-12 0)
(0.975 -3.60491e-12 0)
(0.975 -7.08983e-12 0)
(0.975 -1.49474e-11 0)
(0.975 -2.80839e-11 0)
(0.975 -8.41424e-11 0)
(0.975 -1.1768e-10 0)
)
;

boundaryField
{
    top
    {
        type            fixedValue;
        value           uniform (1 0 0);
    }
    bottom
    {
        type            fixedValue;
        value           uniform (0 0 0);
    }
    inlet
    {
        type            zeroGradient;
    }
    outlet
    {
        type            zeroGradient;
    }
    frontAndBack
    {
        type            empty;
    }
}


// ************************************************************************* //
