/*--------------------------------*- C++ -*----------------------------------*\
  =========                 |
  \\      /  F ield         | OpenFOAM: The Open Source CFD Toolbox
   \\    /   O peration     | Website:  https://openfoam.org
    \\  /    A nd           | Version:  9
     \\/     M anipulation  |
\*---------------------------------------------------------------------------*/
FoamFile
{
    format      ascii;
    class       volScalarField;
    location    "4.8";
    object      p;
}
// * * * * * * * * * * * * * * * * * * * * * * * * * * * * * * * * * * * * * //

dimensions      [0 2 -2 0 0 0 0];

internalField   nonuniform List<scalar> 
400
(
6.70707e-12
1.11148e-11
1.07474e-11
1.02236e-11
9.36238e-12
8.34211e-12
7.27915e-12
6.19762e-12
5.11573e-12
4.04254e-12
2.97309e-12
1.90046e-12
8.22306e-13
-2.60966e-13
-1.34834e-12
-2.44163e-12
-3.5127e-12
-4.48427e-12
-5.71229e-12
-3.609e-12
6.36246e-12
1.05927e-11
1.01928e-11
9.89104e-12
9.1605e-12
8.22033e-12
7.20865e-12
6.15819e-12
5.09454e-12
4.03193e-12
2.9686e-12
1.89986e-12
8.2532e-13
-2.52534e-13
-1.32869e-12
-2.39913e-12
-3.42261e-12
-4.27758e-12
-5.5777e-12
-3.51718e-12
6.43217e-12
1.06378e-11
9.87966e-12
9.6751e-12
9.01541e-12
8.12453e-12
7.1496e-12
6.12317e-12
5.07432e-12
4.02049e-12
2.96252e-12
1.89749e-12
8.2644e-13
-2.46966e-13
-1.31508e-12
-2.37242e-12
-3.37631e-12
-4.17614e-12
-5.75676e-12
-3.64626e-12
6.67892e-12
1.1101e-11
9.8135e-12
9.58387e-12
8.93703e-12
8.06239e-12
7.10679e-12
6.09512e-12
5.05612e-12
4.00858e-12
2.95493e-12
1.89307e-12
8.24881e-13
-2.45611e-13
-1.31021e-12
-2.36581e-12
-3.37657e-12
-4.18326e-12
-6.11979e-12
-3.84647e-12
6.9495e-12
1.17435e-11
9.87516e-12
9.56313e-12
8.8988e-12
8.02131e-12
7.07415e-12
6.07106e-12
5.03863e-12
3.99598e-12
2.94611e-12
1.8871e-12
8.20888e-13
-2.48117e-13
-1.31244e-12
-2.37293e-12
-3.40471e-12
-4.2428e-12
-6.5261e-12
-4.03688e-12
7.1993e-12
1.24377e-11
1e-11
9.58047e-12
8.88434e-12
7.99295e-12
7.04717e-12
6.049e-12
5.02129e-12
3.98271e-12
2.93619e-12
1.87985e-12
8.15091e-13
-2.53501e-13
-1.31945e-12
-2.38811e-12
-3.44613e-12
-4.3205e-12
-6.8988e-12
-4.19171e-12
7.41957e-12
1.31133e-11
1.01514e-11
9.61614e-12
8.88285e-12
7.97145e-12
7.02302e-12
6.02771e-12
5.00395e-12
3.969e-12
2.92551e-12
1.87157e-12
8.08127e-13
-2.60641e-13
-1.32909e-12
-2.40629e-12
-3.49023e-12
-4.39589e-12
-7.19902e-12
-4.3066e-12
7.60173e-12
1.37126e-11
1.02996e-11
9.65308e-12
8.88411e-12
7.95174e-12
6.99933e-12
6.00626e-12
4.98621e-12
3.95496e-12
2.91447e-12
1.86258e-12
8.0042e-13
-2.68393e-13
-1.33897e-12
-2.4226e-12
-3.52757e-12
-4.45375e-12
-7.3993e-12
-4.37738e-12
7.74023e-12
1.4191e-11
1.04206e-11
9.67776e-12
8.88024e-12
7.93012e-12
6.9742e-12
5.98396e-12
4.96809e-12
3.94073e-12
2.90344e-12
1.85379e-12
7.92914e-13
-2.75536e-13
-1.34656e-12
-2.43311e-12
-3.5503e-12
-4.48253e-12
-7.4844e-12
-4.40261e-12
7.83106e-12
1.45159e-11
1.04979e-11
9.68166e-12
8.86643e-12
7.90493e-12
6.94757e-12
5.96085e-12
4.94976e-12
3.92666e-12
2.89287e-12
1.84578e-12
7.86397e-13
-2.80591e-13
-1.35012e-12
-2.43414e-12
-3.55333e-12
-4.47574e-12
-7.44844e-12
-4.38283e-12
7.87107e-12
1.46658e-11
1.05227e-11
9.66155e-12
8.84169e-12
7.8761e-12
6.92036e-12
5.93792e-12
4.93208e-12
3.91333e-12
2.88291e-12
1.8388e-12
7.81658e-13
-2.82929e-13
-1.3482e-12
-2.42424e-12
-3.53419e-12
-4.43142e-12
-7.2944e-12
-4.31981e-12
7.85765e-12
1.46301e-11
1.04923e-11
9.6193e-12
8.80812e-12
7.8459e-12
6.89415e-12
5.91669e-12
4.91592e-12
3.90145e-12
2.87421e-12
1.83291e-12
7.78728e-13
-2.81737e-13
-1.34066e-12
-2.40338e-12
-3.49287e-12
-4.35181e-12
-7.03247e-12
-4.21649e-12
7.78846e-12
1.44098e-11
1.0413e-11
9.56075e-12
8.77027e-12
7.81803e-12
6.87155e-12
5.89897e-12
4.90238e-12
3.89165e-12
2.86719e-12
1.82846e-12
7.77923e-13
-2.77626e-13
-1.32796e-12
-2.37341e-12
-3.43289e-12
-4.24269e-12
-6.67915e-12
-4.07696e-12
7.66263e-12
1.40196e-11
1.02974e-11
9.49716e-12
8.73498e-12
7.79725e-12
6.85579e-12
5.88647e-12
4.89275e-12
3.88426e-12
2.86219e-12
1.8258e-12
7.78796e-13
-2.71885e-13
-1.31259e-12
-2.33755e-12
-3.36028e-12
-4.11404e-12
-6.25708e-12
-3.90711e-12
7.48095e-12
1.34889e-11
1.01679e-11
9.44218e-12
8.71117e-12
7.78807e-12
6.84974e-12
5.88082e-12
4.88793e-12
3.88039e-12
2.85947e-12
1.82468e-12
7.80645e-13
-2.65327e-13
-1.29696e-12
-2.30135e-12
-3.28389e-12
-3.97992e-12
-5.79615e-12
-3.71401e-12
7.24806e-12
1.28651e-11
1.00533e-11
9.41278e-12
8.70801e-12
7.79527e-12
6.85498e-12
5.88326e-12
4.88842e-12
3.87996e-12
2.85848e-12
1.82456e-12
7.82108e-13
-2.59225e-13
-1.28329e-12
-2.27027e-12
-3.21514e-12
-3.85721e-12
-5.33138e-12
-3.50717e-12
6.96767e-12
1.22145e-11
9.99093e-12
9.42565e-12
8.73317e-12
7.82189e-12
6.8729e-12
5.89381e-12
4.89431e-12
3.88263e-12
2.85953e-12
1.82482e-12
7.82714e-13
-2.56354e-13
-1.27603e-12
-2.25124e-12
-3.16593e-12
-3.76615e-12
-4.90546e-12
-3.29646e-12
6.68129e-12
1.16661e-11
1.00446e-11
9.50917e-12
8.79723e-12
7.87125e-12
6.90483e-12
5.91271e-12
4.90499e-12
3.88801e-12
2.86178e-12
1.82549e-12
7.81134e-13
-2.59255e-13
-1.27887e-12
-2.25254e-12
-3.15331e-12
-3.73981e-12
-4.58798e-12
-3.11115e-12
6.51931e-12
1.14605e-11
1.03317e-11
9.70704e-12
8.91987e-12
7.95083e-12
6.95252e-12
5.94062e-12
4.92044e-12
3.89611e-12
2.8654e-12
1.82529e-12
7.77273e-13
-2.69033e-13
-1.29675e-12
-2.28433e-12
-3.19881e-12
-3.82982e-12
-4.50373e-12
-3.03825e-12
6.71982e-12
1.18042e-11
1.0847e-11
1.00089e-11
9.08994e-12
8.05173e-12
7.00953e-12
5.9732e-12
4.93927e-12
3.90648e-12
2.87002e-12
1.82478e-12
7.70635e-13
-2.84127e-13
-1.32693e-12
-2.34143e-12
-3.29927e-12
-4.03205e-12
-4.72411e-12
-3.20628e-12
)
;

boundaryField
{
    top
    {
        type            zeroGradient;
    }
    bottom
    {
        type            zeroGradient;
    }
    inlet
    {
        type            fixedValue;
        value           uniform 0;
    }
    outlet
    {
        type            fixedValue;
        value           uniform 0;
    }
    frontAndBack
    {
        type            empty;
    }
}


// ************************************************************************* //
