/*--------------------------------*- C++ -*----------------------------------*\
  =========                 |
  \\      /  F ield         | OpenFOAM: The Open Source CFD Toolbox
   \\    /   O peration     | Website:  https://openfoam.org
    \\  /    A nd           | Version:  9
     \\/     M anipulation  |
\*---------------------------------------------------------------------------*/
FoamFile
{
    format      ascii;
    class       surfaceScalarField;
    location    "4.8";
    object      phi;
}
// * * * * * * * * * * * * * * * * * * * * * * * * * * * * * * * * * * * * * //

dimensions      [0 3 -1 0 0 0 0];

internalField   nonuniform List<scalar> 
760
(
1.25e-06
-4.10832e-17
1.25e-06
-3.41877e-17
1.25e-06
-1.62838e-17
1.25e-06
-9.26327e-18
1.25e-06
-5.31716e-18
1.25e-06
-2.92245e-18
1.25e-06
-1.60152e-18
1.25e-06
-8.38161e-19
1.25e-06
-4.08452e-19
1.25e-06
-1.86101e-19
1.25e-06
-7.04931e-20
1.25e-06
1.78442e-21
1.25e-06
6.65711e-20
1.25e-06
1.72889e-19
1.25e-06
4.12045e-19
1.25e-06
1.04138e-18
1.25e-06
2.48527e-18
1.25e-06
5.55369e-18
1.25e-06
1.74991e-17
2.01996e-17
3.75e-06
-9.89069e-17
3.75e-06
-9.26827e-17
3.75e-06
-5.29917e-17
3.75e-06
-3.15405e-17
3.75e-06
-1.86126e-17
3.75e-06
-1.05913e-17
3.75e-06
-5.91604e-18
3.75e-06
-3.18293e-18
3.75e-06
-1.61856e-18
3.75e-06
-7.55036e-19
3.75e-06
-2.82331e-19
3.75e-06
3.29441e-21
3.75e-06
2.48435e-19
3.75e-06
6.37133e-19
3.75e-06
1.48722e-18
3.75e-06
3.53778e-18
3.75e-06
8.11396e-18
3.75e-06
1.74228e-17
3.75e-06
4.24682e-17
4.48824e-17
6.25e-06
-1.50433e-16
6.25e-06
-1.50925e-16
6.25e-06
-9.59409e-17
6.25e-06
-5.94125e-17
6.25e-06
-3.60034e-17
6.25e-06
-2.09814e-17
6.25e-06
-1.19071e-17
6.25e-06
-6.51035e-18
6.25e-06
-3.37433e-18
6.25e-06
-1.6053e-18
6.25e-06
-6.21879e-19
6.25e-06
-3.45994e-20
6.25e-06
4.49209e-19
6.25e-06
1.17772e-18
6.25e-06
2.73599e-18
6.25e-06
6.32948e-18
6.25e-06
1.40605e-17
6.25e-06
2.90882e-17
6.25e-06
6.16212e-17
6.16682e-17
8.75e-06
-1.89014e-16
8.75e-06
-1.96867e-16
8.75e-06
-1.34001e-16
8.75e-06
-8.59867e-17
8.75e-06
-5.33667e-17
8.75e-06
-3.17176e-17
8.75e-06
-1.82465e-17
8.75e-06
-1.0097e-17
8.75e-06
-5.29735e-18
8.75e-06
-2.55783e-18
8.75e-06
-1.0275e-18
8.75e-06
-1.34134e-19
8.75e-06
5.65274e-19
8.75e-06
1.55371e-18
8.75e-06
3.61892e-18
8.75e-06
8.25562e-18
8.75e-06
1.79885e-17
8.75e-06
3.59821e-17
8.75e-06
7.03783e-17
6.82578e-17
1.125e-05
-2.10712e-16
1.125e-05
-2.24365e-16
1.125e-05
-1.60311e-16
1.125e-05
-1.05944e-16
1.125e-05
-6.71464e-17
1.125e-05
-4.05799e-17
1.125e-05
-2.36176e-17
1.125e-05
-1.31859e-17
1.125e-05
-6.97294e-18
1.125e-05
-3.39951e-18
1.125e-05
-1.40731e-18
1.125e-05
-2.86366e-19
1.125e-05
5.14039e-19
1.125e-05
1.56222e-18
1.125e-05
3.71907e-18
1.125e-05
8.53085e-18
1.125e-05
1.85097e-17
1.125e-05
3.62212e-17
1.125e-05
6.75615e-17
6.40387e-17
1.375e-05
-2.14478e-16
1.375e-05
-2.31331e-16
1.375e-05
-1.71258e-16
1.375e-05
-1.15921e-16
1.375e-05
-7.48032e-17
1.375e-05
-4.58411e-17
1.375e-05
-2.69348e-17
1.375e-05
-1.51289e-17
1.375e-05
-8.03182e-18
1.375e-05
-3.93362e-18
1.375e-05
-1.67129e-18
1.375e-05
-4.66423e-19
1.375e-05
2.66979e-19
1.375e-05
1.10197e-18
1.375e-05
2.83974e-18
1.375e-05
6.82962e-18
1.375e-05
1.52283e-17
1.375e-05
2.96808e-17
1.375e-05
5.42529e-17
5.01571e-17
1.625e-05
-2.01026e-16
1.625e-05
-2.1818e-16
1.625e-05
-1.65878e-16
1.625e-05
-1.14441e-16
1.625e-05
-7.49749e-17
1.625e-05
-4.64843e-17
1.625e-05
-2.75112e-17
1.625e-05
-1.54947e-17
1.625e-05
-8.21113e-18
1.625e-05
-4.01181e-18
1.625e-05
-1.74242e-18
1.625e-05
-6.36783e-19
1.625e-05
-1.56834e-19
1.625e-05
1.84731e-19
1.625e-05
1.00852e-18
1.625e-05
3.26663e-18
1.625e-05
8.52183e-18
1.625e-05
1.7413e-17
1.625e-05
3.25922e-17
2.85561e-17
1.875e-05
-1.72529e-16
1.875e-05
-1.87235e-16
1.875e-05
-1.45261e-16
1.875e-05
-1.01737e-16
1.875e-05
-6.75259e-17
1.875e-05
-4.22727e-17
1.875e-05
-2.51314e-17
1.875e-05
-1.41309e-17
1.875e-05
-7.41815e-18
1.875e-05
-3.57205e-18
1.875e-05
-1.57793e-18
1.875e-05
-7.67053e-19
1.875e-05
-7.09044e-19
1.875e-05
-1.08434e-18
1.875e-05
-1.5633e-18
1.875e-05
-1.69755e-18
1.875e-05
-6.96023e-19
1.875e-05
1.14265e-18
1.875e-05
5.36981e-18
1.74097e-18
2.125e-05
-1.32153e-16
2.125e-05
-1.42125e-16
2.125e-05
-1.12093e-16
2.125e-05
-7.95012e-17
2.125e-05
-5.34295e-17
2.125e-05
-3.3745e-17
2.125e-05
-2.00935e-17
2.125e-05
-1.11905e-17
2.125e-05
-5.72941e-18
2.125e-05
-2.65031e-18
2.125e-05
-1.17884e-18
2.125e-05
-8.21921e-19
2.125e-05
-1.30914e-18
2.125e-05
-2.54122e-18
2.125e-05
-4.52231e-18
2.125e-05
-7.40633e-18
2.125e-05
-1.11903e-17
2.125e-05
-1.70547e-17
2.125e-05
-2.44308e-17
-2.7562e-17
2.375e-05
-8.38236e-17
2.375e-05
-8.74354e-17
2.375e-05
-7.02559e-17
2.375e-05
-5.05678e-17
2.375e-05
-3.45892e-17
2.375e-05
-2.20873e-17
2.375e-05
-1.3116e-17
2.375e-05
-7.10571e-18
2.375e-05
-3.39685e-18
2.375e-05
-1.37881e-18
2.375e-05
-5.94131e-19
2.375e-05
-7.85187e-19
2.375e-05
-1.87123e-18
2.375e-05
-3.97176e-18
2.375e-05
-7.46527e-18
2.375e-05
-1.30788e-17
2.375e-05
-2.16266e-17
2.375e-05
-3.50428e-17
2.375e-05
-5.38313e-17
-5.66065e-17
2.625e-05
-3.19665e-17
2.625e-05
-2.84144e-17
2.625e-05
-2.44233e-17
2.625e-05
-1.85614e-17
2.625e-05
-1.35543e-17
2.625e-05
-8.98204e-18
2.625e-05
-5.23804e-18
2.625e-05
-2.50378e-18
2.625e-05
-7.79116e-19
2.625e-05
3.81321e-20
2.625e-05
7.17335e-20
2.625e-05
-6.6626e-19
2.625e-05
-2.30682e-18
2.625e-05
-5.18498e-18
2.625e-05
-9.98037e-18
2.625e-05
-1.7972e-17
2.625e-05
-3.07289e-17
2.625e-05
-5.08168e-17
2.625e-05
-8.00652e-17
-8.27786e-17
2.875e-05
1.87424e-17
2.875e-05
2.93346e-17
2.875e-05
2.02587e-17
2.875e-05
1.2505e-17
2.875e-05
6.81489e-18
2.875e-05
3.67409e-18
2.875e-05
2.34236e-18
2.875e-05
1.89318e-18
2.875e-05
1.69637e-18
2.875e-05
1.36782e-18
2.875e-05
7.06537e-19
2.875e-05
-5.01087e-19
2.875e-05
-2.56926e-18
2.875e-05
-5.99349e-18
2.875e-05
-1.17256e-17
2.875e-05
-2.14453e-17
2.875e-05
-3.73905e-17
2.875e-05
-6.267e-17
2.875e-05
-1.00714e-16
-1.03742e-16
3.125e-05
6.36316e-17
3.125e-05
8.01342e-17
3.125e-05
5.86594e-17
3.125e-05
3.86248e-17
3.125e-05
2.37144e-17
3.125e-05
1.4041e-17
3.125e-05
8.47397e-18
3.125e-05
5.40612e-18
3.125e-05
3.6293e-18
3.125e-05
2.38978e-18
3.125e-05
1.19577e-18
3.125e-05
-3.27291e-19
3.125e-05
-2.61634e-18
3.125e-05
-6.28095e-18
3.125e-05
-1.24428e-17
3.125e-05
-2.30552e-17
3.125e-05
-4.08134e-17
3.125e-05
-6.92847e-17
3.125e-05
-1.13809e-16
-1.17543e-16
3.375e-05
9.83171e-17
3.375e-05
1.18598e-16
3.375e-05
8.60387e-17
3.375e-05
5.63636e-17
3.375e-05
3.48155e-17
3.375e-05
2.0673e-17
3.375e-05
1.22828e-17
3.375e-05
7.51317e-18
3.375e-05
4.7339e-18
3.375e-05
2.92624e-18
3.375e-05
1.45345e-18
3.375e-05
-1.76062e-19
3.375e-05
-2.44902e-18
3.375e-05
-6.024e-18
3.375e-05
-1.2049e-17
3.375e-05
-2.25704e-17
3.375e-05
-4.05641e-17
3.375e-05
-6.98543e-17
3.375e-05
-1.17922e-16
-1.2275e-16
3.625e-05
1.18965e-16
3.625e-05
1.40002e-16
3.625e-05
9.87311e-17
3.625e-05
6.33376e-17
3.625e-05
3.87157e-17
3.625e-05
2.27629e-17
3.625e-05
1.33499e-17
3.625e-05
7.98338e-18
3.625e-05
4.8848e-18
3.625e-05
2.9361e-18
3.625e-05
1.45797e-18
3.625e-05
-6.73511e-20
3.625e-05
-2.08529e-18
3.625e-05
-5.26053e-18
3.625e-05
-1.06162e-17
3.625e-05
-2.00754e-17
3.625e-05
-3.66443e-17
3.625e-05
-6.42029e-17
3.625e-05
-1.12328e-16
-1.18512e-16
3.875e-05
1.22851e-16
3.875e-05
1.41011e-16
3.875e-05
9.48209e-17
3.875e-05
5.89115e-17
3.875e-05
3.53374e-17
3.875e-05
2.04328e-17
3.875e-05
1.18029e-17
3.875e-05
6.95103e-18
3.875e-05
4.17691e-18
3.875e-05
2.4737e-18
3.875e-05
1.21832e-18
3.875e-05
-6.38354e-21
3.875e-05
-1.59859e-18
3.875e-05
-4.08874e-18
3.875e-05
-8.3268e-18
3.875e-05
-1.59213e-17
3.875e-05
-2.95981e-17
3.875e-05
-5.28987e-17
3.875e-05
-9.71433e-17
-1.04767e-16
4.125e-05
1.08568e-16
4.125e-05
1.20438e-16
4.125e-05
7.52441e-17
4.125e-05
4.47039e-17
4.125e-05
2.61942e-17
4.125e-05
1.48151e-17
4.125e-05
8.39862e-18
4.125e-05
4.88231e-18
4.125e-05
2.90717e-18
4.125e-05
1.7105e-18
4.125e-05
8.42174e-19
4.125e-05
5.52324e-21
4.125e-05
-1.04774e-18
4.125e-05
-2.71143e-18
4.125e-05
-5.58713e-18
4.125e-05
-1.07851e-17
4.125e-05
-2.04891e-17
4.125e-05
-3.74215e-17
4.125e-05
-7.36322e-17
-8.23576e-17
4.375e-05
7.76984e-17
4.375e-05
8.12963e-17
4.375e-05
4.4919e-17
4.375e-05
2.52282e-17
4.375e-05
1.43849e-17
4.375e-05
7.89924e-18
4.375e-05
4.38865e-18
4.375e-05
2.52034e-18
4.375e-05
1.50448e-18
4.375e-05
8.88202e-19
4.375e-05
4.35685e-19
4.375e-05
1.61065e-20
4.375e-05
-5.39888e-19
4.375e-05
-1.39651e-18
4.375e-05
-2.88519e-18
4.375e-05
-5.62402e-18
4.375e-05
-1.10102e-17
4.375e-05
-2.0435e-17
4.375e-05
-4.47905e-17
-5.35996e-17
4.625e-05
3.43335e-17
4.625e-05
3.29141e-17
4.625e-05
1.46819e-17
4.625e-05
7.56515e-18
4.625e-05
4.23196e-18
4.625e-05
2.21099e-18
4.625e-05
1.20182e-18
4.625e-05
6.8623e-19
4.625e-05
4.09543e-19
4.625e-05
2.45032e-19
4.625e-05
1.24105e-19
4.625e-05
1.1022e-20
4.625e-05
-1.45338e-19
4.625e-05
-4.03331e-19
4.625e-05
-8.28953e-19
4.625e-05
-1.63207e-18
4.625e-05
-3.33926e-18
4.625e-05
-6.1665e-18
4.625e-05
-1.63754e-17
-2.21899e-17
4.875e-05
4.875e-05
4.875e-05
4.875e-05
4.875e-05
4.875e-05
4.875e-05
4.875e-05
4.875e-05
4.875e-05
4.875e-05
4.875e-05
4.875e-05
4.875e-05
4.875e-05
4.875e-05
4.875e-05
4.875e-05
4.875e-05
)
;

boundaryField
{
    top
    {
        type            calculated;
        value           uniform 0;
    }
    bottom
    {
        type            calculated;
        value           uniform 0;
    }
    inlet
    {
        type            calculated;
        value           nonuniform List<scalar> 
20
(
-1.25e-06
-3.75e-06
-6.25e-06
-8.75e-06
-1.125e-05
-1.375e-05
-1.625e-05
-1.875e-05
-2.125e-05
-2.375e-05
-2.625e-05
-2.875e-05
-3.125e-05
-3.375e-05
-3.625e-05
-3.875e-05
-4.125e-05
-4.375e-05
-4.625e-05
-4.875e-05
)
;
    }
    outlet
    {
        type            calculated;
        value           nonuniform List<scalar> 
20
(
1.25e-06
3.75e-06
6.25e-06
8.75e-06
1.125e-05
1.375e-05
1.625e-05
1.875e-05
2.125e-05
2.375e-05
2.625e-05
2.875e-05
3.125e-05
3.375e-05
3.625e-05
3.875e-05
4.125e-05
4.375e-05
4.625e-05
4.875e-05
)
;
    }
    frontAndBack
    {
        type            empty;
        value           nonuniform List<scalar> 0();
    }
}


// ************************************************************************* //
