/*--------------------------------*- C++ -*----------------------------------*\
  =========                 |
  \\      /  F ield         | OpenFOAM: The Open Source CFD Toolbox
   \\    /   O peration     | Website:  https://openfoam.org
    \\  /    A nd           | Version:  9
     \\/     M anipulation  |
\*---------------------------------------------------------------------------*/
FoamFile
{
    format      ascii;
    class       volVectorField;
    location    "4.8";
    object      U;
}
// * * * * * * * * * * * * * * * * * * * * * * * * * * * * * * * * * * * * * //

dimensions      [0 1 -1 0 0 0 0];

internalField   nonuniform List<vector> 
400
(
(0.025 -2.013e-13 0)
(0.025 -1.61265e-13 0)
(0.025 -6.80297e-14 0)
(0.025 -3.62793e-14 0)
(0.025 -2.00106e-14 0)
(0.025 -1.0606e-14 0)
(0.025 -5.71433e-15 0)
(0.025 -2.85557e-15 0)
(0.025 -1.28408e-15 0)
(0.025 -5.47588e-16 0)
(0.025 -1.99461e-16 0)
(0.025 3.13046e-17 0)
(0.025 2.61448e-16 0)
(0.025 6.62411e-16 0)
(0.025 1.59268e-15 0)
(0.025 4.23087e-15 0)
(0.025 1.05693e-14 0)
(0.025 2.51872e-14 0)
(0.025 8.83933e-14 0)
(0.025 1.03537e-13 0)
(0.075 -6.92567e-13 0)
(0.075 -6.15967e-13 0)
(0.075 -3.2181e-13 0)
(0.075 -1.84739e-13 0)
(0.075 -1.06681e-13 0)
(0.075 -5.93137e-14 0)
(0.075 -3.26067e-14 0)
(0.075 -1.723e-14 0)
(0.075 -8.53501e-15 0)
(0.075 -3.87091e-15 0)
(0.075 -1.38426e-15 0)
(0.075 1.32473e-16 0)
(0.075 1.4765e-15 0)
(0.075 3.69393e-15 0)
(0.075 8.68044e-15 0)
(0.075 2.12594e-14 0)
(0.075 5.0025e-14 0)
(0.075 1.1132e-13 0)
(0.075 3.02082e-13 0)
(0.075 3.31511e-13 0)
(0.125 -1.25907e-12 0)
(0.125 -1.22275e-12 0)
(0.125 -7.38567e-13 0)
(0.125 -4.46885e-13 0)
(0.125 -2.66565e-13 0)
(0.125 -1.53282e-13 0)
(0.125 -8.6197e-14 0)
(0.125 -4.66864e-14 0)
(0.125 -2.3941e-14 0)
(0.125 -1.12669e-14 0)
(0.125 -4.2709e-15 0)
(0.125 -3.8325e-17 0)
(0.125 3.57094e-15 0)
(0.125 9.18413e-15 0)
(0.125 2.13364e-14 0)
(0.125 4.99271e-14 0)
(0.125 1.12531e-13 0)
(0.125 2.37466e-13 0)
(0.125 5.3428e-13 0)
(0.125 5.49504e-13 0)
(0.175 -1.7324e-12 0)
(0.175 -1.77179e-12 0)
(0.175 -1.16831e-12 0)
(0.175 -7.35925e-13 0)
(0.175 -4.50841e-13 0)
(0.175 -2.65081e-13 0)
(0.175 -1.51329e-13 0)
(0.175 -8.32222e-14 0)
(0.175 -4.34137e-14 0)
(0.175 -2.08148e-14 0)
(0.175 -8.19453e-15 0)
(0.175 -7.02467e-16 0)
(0.175 5.38728e-15 0)
(0.175 1.43332e-14 0)
(0.175 3.32161e-14 0)
(0.175 7.60257e-14 0)
(0.175 1.66806e-13 0)
(0.175 3.3867e-13 0)
(0.175 6.84039e-13 0)
(0.175 6.74909e-13 0)
(0.225 -2.04285e-12 0)
(0.225 -2.15276e-12 0)
(0.225 -1.50523e-12 0)
(0.225 -9.80556e-13 0)
(0.225 -6.14848e-13 0)
(0.225 -3.68434e-13 0)
(0.225 -2.13156e-13 0)
(0.225 -1.18514e-13 0)
(0.225 -6.24774e-14 0)
(0.225 -3.03456e-14 0)
(0.225 -1.23678e-14 0)
(0.225 -2.00545e-15 0)
(0.225 5.85317e-15 0)
(0.225 1.66452e-14 0)
(0.225 3.89341e-14 0)
(0.225 8.85162e-14 0)
(0.225 1.915e-13 0)
(0.225 3.77536e-13 0)
(0.225 7.15817e-13 0)
(0.225 6.87415e-13 0)
(0.275 -2.17039e-12 0)
(0.275 -2.3275e-12 0)
(0.275 -1.6973e-12 0)
(0.275 -1.13635e-12 0)
(0.275 -7.26995e-13 0)
(0.275 -4.42579e-13 0)
(0.275 -2.58908e-13 0)
(0.275 -1.45083e-13 0)
(0.275 -7.69668e-14 0)
(0.275 -3.76701e-14 0)
(0.275 -1.58139e-14 0)
(0.275 -3.75143e-15 0)
(0.275 4.37278e-15 0)
(0.275 1.44863e-14 0)
(0.275 3.52263e-14 0)
(0.275 8.15963e-14 0)
(0.275 1.77631e-13 0)
(0.275 3.44836e-13 0)
(0.275 6.31512e-13 0)
(0.275 5.92886e-13 0)
(0.325 -2.11818e-12 0)
(0.325 -2.29333e-12 0)
(0.325 -1.72489e-12 0)
(0.325 -1.18036e-12 0)
(0.325 -7.68045e-13 0)
(0.325 -4.73738e-13 0)
(0.325 -2.79553e-13 0)
(0.325 -1.57398e-13 0)
(0.325 -8.36281e-14 0)
(0.325 -4.10096e-14 0)
(0.325 -1.76493e-14 0)
(0.325 -5.61115e-15 0)
(0.325 9.16038e-16 0)
(0.325 7.43513e-15 0)
(0.325 2.13321e-14 0)
(0.325 5.45058e-14 0)
(0.325 1.25988e-13 0)
(0.325 2.4725e-13 0)
(0.325 4.50796e-13 0)
(0.325 4.09809e-13 0)
(0.375 -1.90171e-12 0)
(0.375 -2.06579e-12 0)
(0.375 -1.59028e-12 0)
(0.375 -1.10709e-12 0)
(0.375 -7.30663e-13 0)
(0.375 -4.55569e-13 0)
(0.375 -2.70482e-13 0)
(0.375 -1.52432e-13 0)
(0.375 -8.05962e-14 0)
(0.375 -3.9245e-14 0)
(0.375 -1.72427e-14 0)
(0.375 -7.20956e-15 0)
(0.375 -4.14298e-15 0)
(0.375 -3.86154e-15 0)
(0.375 -1.4153e-15 0)
(0.375 1.0427e-14 0)
(0.375 4.36598e-14 0)
(0.375 9.98544e-14 0)
(0.375 1.99519e-13 0)
(0.375 1.61168e-13 0)
(0.425 -1.5484e-12 0)
(0.425 -1.67563e-12 0)
(0.425 -1.31328e-12 0)
(0.425 -9.26794e-13 0)
(0.425 -6.19373e-13 0)
(0.425 -3.8972e-13 0)
(0.425 -2.32142e-13 0)
(0.425 -1.30187e-13 0)
(0.425 -6.77844e-14 0)
(0.425 -3.22283e-14 0)
(0.425 -1.43547e-14 0)
(0.425 -8.18838e-15 0)
(0.425 -1.01212e-14 0)
(0.425 -1.79696e-14 0)
(0.425 -3.00292e-14 0)
(0.425 -4.47425e-14 0)
(0.425 -5.80895e-14 0)
(0.425 -7.76539e-14 0)
(0.425 -9.27145e-14 0)
(0.425 -1.2628e-13 0)
(0.475 -1.09429e-12 0)
(0.475 -1.1647e-12 0)
(0.475 -9.27684e-13 0)
(0.475 -6.62904e-13 0)
(0.475 -4.49112e-13 0)
(0.475 -2.85172e-13 0)
(0.475 -1.69813e-13 0)
(0.475 -9.37218e-14 0)
(0.475 -4.6895e-14 0)
(0.475 -2.08323e-14 0)
(0.475 -9.23804e-15 0)
(0.475 -8.27939e-15 0)
(0.475 -1.61392e-14 0)
(0.475 -3.2919e-14 0)
(0.475 -6.05551e-14 0)
(0.475 -1.03526e-13 0)
(0.475 -1.65968e-13 0)
(0.475 -2.63641e-13 0)
(0.475 -3.95605e-13 0)
(0.475 -4.24757e-13 0)
(0.525 -5.81854e-13 0)
(0.525 -5.82963e-13 0)
(0.525 -4.77191e-13 0)
(0.525 -3.48633e-13 0)
(0.525 -2.42888e-13 0)
(0.525 -1.56806e-13 0)
(0.525 -9.26693e-14 0)
(0.525 -4.85434e-14 0)
(0.525 -2.11208e-14 0)
(0.525 -6.81674e-15 0)
(0.525 -2.71181e-15 0)
(0.525 -7.43405e-15 0)
(0.525 -2.12887e-14 0)
(0.525 -4.65997e-14 0)
(0.525 -8.87736e-14 0)
(0.525 -1.58054e-13 0)
(0.525 -2.66559e-13 0)
(0.525 -4.3698e-13 0)
(0.525 -6.79997e-13 0)
(0.525 -7.07044e-13 0)
(0.575 -5.72033e-14 0)
(0.575 1.45751e-14 0)
(0.575 -1.18849e-14 0)
(0.575 -2.31866e-14 0)
(0.575 -2.86542e-14 0)
(0.575 -2.32004e-14 0)
(0.575 -1.23506e-14 0)
(0.575 -1.71606e-15 0)
(0.575 5.42114e-15 0)
(0.575 7.51935e-15 0)
(0.575 4.10744e-15 0)
(0.575 -5.92302e-15 0)
(0.575 -2.48813e-14 0)
(0.575 -5.70424e-14 0)
(0.575 -1.10784e-13 0)
(0.575 -2.01197e-13 0)
(0.575 -3.47667e-13 0)
(0.575 -5.78778e-13 0)
(0.575 -9.19654e-13 0)
(0.575 -9.48075e-13 0)
(0.625 4.32171e-13 0)
(0.625 5.70655e-13 0)
(0.625 4.15784e-13 0)
(0.625 2.72165e-13 0)
(0.625 1.64264e-13 0)
(0.625 9.61974e-14 0)
(0.625 5.88683e-14 0)
(0.625 3.94174e-14 0)
(0.625 2.8376e-14 0)
(0.625 1.97942e-14 0)
(0.625 9.99336e-15 0)
(0.625 -4.12585e-15 0)
(0.625 -2.64537e-14 0)
(0.625 -6.26977e-14 0)
(0.625 -1.2348e-13 0)
(0.625 -2.27394e-13 0)
(0.625 -3.99538e-13 0)
(0.625 -6.73622e-13 0)
(0.625 -1.09234e-12 0)
(0.625 -1.12612e-12 0)
(0.675 8.40391e-13 0)
(0.675 1.02908e-12 0)
(0.675 7.55156e-13 0)
(0.675 4.98947e-13 0)
(0.675 3.09132e-13 0)
(0.675 1.84176e-13 0)
(0.675 1.10327e-13 0)
(0.675 6.85325e-14 0)
(0.675 4.4132e-14 0)
(0.675 2.78931e-14 0)
(0.675 1.38914e-14 0)
(0.675 -2.40175e-15 0)
(0.675 -2.58057e-14 0)
(0.675 -6.2833e-14 0)
(0.675 -1.25128e-13 0)
(0.675 -2.33157e-13 0)
(0.675 -4.15846e-13 0)
(0.675 -7.10662e-13 0)
(0.675 -1.18084e-12 0)
(0.675 -1.22397e-12 0)
(0.725 1.12541e-12 0)
(0.725 1.33809e-12 0)
(0.725 9.62744e-13 0)
(0.725 6.26623e-13 0)
(0.725 3.86264e-13 0)
(0.725 2.28805e-13 0)
(0.725 1.35171e-13 0)
(0.725 8.16065e-14 0)
(0.725 5.048e-14 0)
(0.725 3.06477e-14 0)
(0.725 1.52278e-14 0)
(0.725 -1.06717e-15 0)
(0.725 -2.30375e-14 0)
(0.725 -5.75105e-14 0)
(0.725 -1.15631e-13 0)
(0.725 -2.1769e-13 0)
(0.725 -3.94287e-13 0)
(0.725 -6.84736e-13 0)
(0.725 -1.17407e-12 0)
(0.725 -1.23001e-12 0)
(0.775 1.25346e-12 0)
(0.775 1.45532e-12 0)
(0.775 1.00812e-12 0)
(0.775 6.38459e-13 0)
(0.775 3.87271e-13 0)
(0.775 2.2614e-13 0)
(0.775 1.31685e-13 0)
(0.775 7.80705e-14 0)
(0.775 4.72224e-14 0)
(0.775 2.80979e-14 0)
(0.775 1.39031e-14 0)
(0.775 -2.21488e-16 0)
(0.775 -1.8625e-14 0)
(0.775 -4.7435e-14 0)
(0.775 -9.62487e-14 0)
(0.775 -1.83129e-13 0)
(0.775 -3.37407e-13 0)
(0.775 -5.9729e-13 0)
(0.775 -1.06823e-12 0)
(0.775 -1.13917e-12 0)
(0.825 1.19872e-12 0)
(0.825 1.35196e-12 0)
(0.825 8.81913e-13 0)
(0.825 5.36936e-13 0)
(0.825 3.18414e-13 0)
(0.825 1.82189e-13 0)
(0.825 1.04236e-13 0)
(0.825 6.0916e-14 0)
(0.825 3.63672e-14 0)
(0.825 2.14155e-14 0)
(0.825 1.05451e-14 0)
(0.825 1.02739e-16 0)
(0.825 -1.32107e-14 0)
(0.825 -3.40921e-14 0)
(0.825 -6.99135e-14 0)
(0.825 -1.34466e-13 0)
(0.825 -2.52842e-13 0)
(0.825 -4.57363e-13 0)
(0.825 -8.67644e-13 0)
(0.825 -9.5306e-13 0)
(0.875 9.57375e-13 0)
(0.875 1.03266e-12 0)
(0.875 6.11186e-13 0)
(0.875 3.52742e-13 0)
(0.875 2.03514e-13 0)
(0.875 1.13363e-13 0)
(0.875 6.35636e-14 0)
(0.875 3.66661e-14 0)
(0.875 2.17784e-14 0)
(0.875 1.27965e-14 0)
(0.875 6.27838e-15 0)
(0.875 1.28204e-16 0)
(0.875 -7.72565e-15 0)
(0.875 -2.00236e-14 0)
(0.875 -4.13287e-14 0)
(0.875 -8.02228e-14 0)
(0.875 -1.54782e-13 0)
(0.875 -2.85889e-13 0)
(0.875 -5.92507e-13 0)
(0.875 -6.84839e-13 0)
(0.925 5.68603e-13 0)
(0.925 5.72571e-13 0)
(0.925 2.87737e-13 0)
(0.925 1.52868e-13 0)
(0.925 8.52867e-14 0)
(0.925 4.55248e-14 0)
(0.925 2.48499e-14 0)
(0.925 1.4163e-14 0)
(0.925 8.45452e-15 0)
(0.925 5.0152e-15 0)
(0.925 2.48648e-15 0)
(0.925 1.39639e-16 0)
(0.925 -3.03867e-15 0)
(0.925 -8.04304e-15 0)
(0.925 -1.66635e-14 0)
(0.925 -3.27768e-14 0)
(0.925 -6.5728e-14 0)
(0.925 -1.23221e-13 0)
(0.925 -2.96141e-13 0)
(0.925 -3.73553e-13 0)
(0.975 1.75771e-13 0)
(0.975 1.6444e-13 0)
(0.975 6.58849e-14 0)
(0.975 3.07202e-14 0)
(0.975 1.64601e-14 0)
(0.975 8.1638e-15 0)
(0.975 4.28621e-15 0)
(0.975 2.42014e-15 0)
(0.975 1.44357e-15 0)
(0.975 8.69603e-16 0)
(0.975 4.25395e-16 0)
(0.975 1.12128e-17 0)
(0.975 -6.16959e-16 0)
(0.975 -1.666e-15 0)
(0.975 -3.33014e-15 0)
(0.975 -6.52221e-15 0)
(0.975 -1.38043e-14 0)
(0.975 -2.5901e-14 0)
(0.975 -7.72408e-14 0)
(0.975 -1.07875e-13 0)
)
;

boundaryField
{
    top
    {
        type            fixedValue;
        value           uniform (1 0 0);
    }
    bottom
    {
        type            fixedValue;
        value           uniform (0 0 0);
    }
    inlet
    {
        type            zeroGradient;
    }
    outlet
    {
        type            zeroGradient;
    }
    frontAndBack
    {
        type            empty;
    }
}


// ************************************************************************* //
