/*--------------------------------*- C++ -*----------------------------------*\
  =========                 |
  \\      /  F ield         | OpenFOAM: The Open Source CFD Toolbox
   \\    /   O peration     | Website:  https://openfoam.org
    \\  /    A nd           | Version:  9
     \\/     M anipulation  |
\*---------------------------------------------------------------------------*/
FoamFile
{
    format      ascii;
    class       volScalarField;
    location    "3.7";
    object      p;
}
// * * * * * * * * * * * * * * * * * * * * * * * * * * * * * * * * * * * * * //

dimensions      [0 2 -2 0 0 0 0];

internalField   nonuniform List<scalar> 
400
(
1.90436e-10
3.15606e-10
3.05176e-10
2.90283e-10
2.65826e-10
2.36859e-10
2.06683e-10
1.75979e-10
1.45262e-10
1.1479e-10
8.44234e-11
5.39686e-11
2.33556e-11
-7.40213e-12
-3.82724e-11
-6.93136e-11
-9.97261e-11
-1.2732e-10
-1.62185e-10
-1.02465e-10
1.80614e-10
3.007e-10
2.89355e-10
2.80809e-10
2.60082e-10
2.33397e-10
2.04679e-10
1.74859e-10
1.44661e-10
1.14488e-10
8.42952e-11
5.39517e-11
2.3441e-11
-7.16233e-12
-3.77123e-11
-6.81048e-11
-9.71619e-11
-1.21429e-10
-1.58335e-10
-9.98439e-11
1.82609e-10
3.02008e-10
2.80493e-10
2.74694e-10
2.55972e-10
2.3068e-10
2.03004e-10
1.73867e-10
1.44088e-10
1.14164e-10
8.41222e-11
5.38846e-11
2.34709e-11
-7.00423e-12
-3.73245e-11
-6.73461e-11
-9.58482e-11
-1.18556e-10
-1.63428e-10
-1.03516e-10
1.89619e-10
3.15169e-10
2.78625e-10
2.72112e-10
2.5375e-10
2.28919e-10
2.0179e-10
1.73072e-10
1.43572e-10
1.13827e-10
8.39056e-11
5.37599e-11
2.34257e-11
-6.96805e-12
-3.71869e-11
-6.7155e-11
-9.58545e-11
-1.18761e-10
-1.73738e-10
-1.092e-10
1.97299e-10
3.33406e-10
2.80377e-10
2.71525e-10
2.52665e-10
2.27754e-10
2.00864e-10
1.7239e-10
1.43077e-10
1.13468e-10
8.3652e-11
5.35878e-11
2.33145e-11
-7.03775e-12
-3.7249e-11
-6.73558e-11
-9.66531e-11
-1.2045e-10
-1.85272e-10
-1.14602e-10
2.04389e-10
3.53112e-10
2.83924e-10
2.72017e-10
2.52257e-10
2.26946e-10
2.001e-10
1.71764e-10
1.42586e-10
1.13091e-10
8.33692e-11
5.33777e-11
2.315e-11
-7.18909e-12
-3.74479e-11
-6.77857e-11
-9.78283e-11
-1.22659e-10
-1.95851e-10
-1.18998e-10
2.10643e-10
3.72292e-10
2.88223e-10
2.7303e-10
2.52213e-10
2.26339e-10
1.99418e-10
1.71161e-10
1.42092e-10
1.127e-10
8.30665e-11
5.3141e-11
2.29481e-11
-7.39326e-12
-3.7722e-11
-6.83024e-11
-9.90807e-11
-1.24802e-10
-2.04367e-10
-1.22259e-10
2.15814e-10
3.89311e-10
2.92433e-10
2.74077e-10
2.52247e-10
2.25785e-10
1.98748e-10
1.70551e-10
1.41588e-10
1.12299e-10
8.27529e-11
5.28909e-11
2.27293e-11
-7.61458e-12
-3.80017e-11
-6.8768e-11
-1.00139e-10
-1.26443e-10
-2.1005e-10
-1.24265e-10
2.19746e-10
4.02896e-10
2.95871e-10
2.74776e-10
2.52136e-10
2.25177e-10
1.98043e-10
1.69918e-10
1.41072e-10
1.11894e-10
8.2439e-11
5.26425e-11
2.25167e-11
-7.81458e-12
-3.82197e-11
-6.90605e-11
-1.00785e-10
-1.27259e-10
-2.12462e-10
-1.24982e-10
2.22322e-10
4.12116e-10
2.98068e-10
2.74887e-10
2.51747e-10
2.24461e-10
1.9729e-10
1.69264e-10
1.40552e-10
1.11495e-10
8.21366e-11
5.24111e-11
2.23327e-11
-7.95848e-12
-3.83199e-11
-6.909e-11
-1.00867e-10
-1.27066e-10
-2.11443e-10
-1.24419e-10
2.23457e-10
4.16366e-10
2.98765e-10
2.74316e-10
2.51046e-10
2.23644e-10
1.9651e-10
1.68614e-10
1.40049e-10
1.11118e-10
8.1858e-11
5.221e-11
2.21952e-11
-8.02135e-12
-3.82668e-11
-6.88081e-11
-1.00315e-10
-1.25805e-10
-2.07072e-10
-1.22629e-10
2.23077e-10
4.1535e-10
2.97904e-10
2.73107e-10
2.50086e-10
2.22785e-10
1.95757e-10
1.68007e-10
1.3959e-10
1.1078e-10
8.16156e-11
5.20489e-11
2.21136e-11
-7.9928e-12
-3.80512e-11
-6.82135e-11
-9.91381e-11
-1.23536e-10
-1.99632e-10
-1.19698e-10
2.21114e-10
4.09098e-10
2.95642e-10
2.71439e-10
2.49005e-10
2.21989e-10
1.95109e-10
1.67497e-10
1.39208e-10
1.10501e-10
8.14204e-11
5.19328e-11
2.20881e-11
-7.87923e-12
-3.76939e-11
-6.73565e-11
-9.74306e-11
-1.20434e-10
-1.89594e-10
-1.1574e-10
2.17544e-10
3.98019e-10
2.92358e-10
2.69616e-10
2.48003e-10
2.21387e-10
1.9465e-10
1.67137e-10
1.38936e-10
1.10299e-10
8.12797e-11
5.18613e-11
2.21092e-11
-7.7065e-12
-3.72452e-11
-6.63364e-11
-9.53681e-11
-1.16783e-10
-1.7761e-10
-1.10915e-10
2.12378e-10
3.82953e-10
2.8868e-10
2.68048e-10
2.47329e-10
2.21121e-10
1.94464e-10
1.66976e-10
1.388e-10
1.10187e-10
8.11973e-11
5.18282e-11
2.21585e-11
-7.51368e-12
-3.67824e-11
-6.52975e-11
-9.32013e-11
-1.12976e-10
-1.64516e-10
-1.05429e-10
2.05762e-10
3.65255e-10
2.85426e-10
2.67215e-10
2.47233e-10
2.21317e-10
1.94609e-10
1.67043e-10
1.38814e-10
1.10169e-10
8.11704e-11
5.18229e-11
2.22101e-11
-7.35095e-12
-3.63985e-11
-6.44143e-11
-9.12381e-11
-1.09489e-10
-1.51328e-10
-9.9556e-11
1.97806e-10
3.46789e-10
2.8366e-10
2.67599e-10
2.4795e-10
2.22062e-10
1.95114e-10
1.67339e-10
1.38973e-10
1.1024e-10
8.1192e-11
5.1831e-11
2.22349e-11
-7.27252e-12
-3.61944e-11
-6.38765e-11
-8.98282e-11
-1.069e-10
-1.39242e-10
-9.35862e-11
1.8967e-10
3.31206e-10
2.8518e-10
2.69968e-10
2.49781e-10
2.23469e-10
1.96006e-10
1.67869e-10
1.39274e-10
1.10393e-10
8.12532e-11
5.18364e-11
2.22002e-11
-7.34414e-12
-3.62897e-11
-6.39171e-11
-8.94514e-11
-1.06136e-10
-1.30242e-10
-8.83212e-11
1.85061e-10
3.25334e-10
2.93302e-10
2.75583e-10
2.53257e-10
2.25726e-10
1.97351e-10
1.68651e-10
1.39723e-10
1.10634e-10
8.13555e-11
5.18305e-11
2.20809e-11
-7.6213e-12
-3.68076e-11
-6.48101e-11
-9.07386e-11
-1.08681e-10
-1.27829e-10
-8.624e-11
1.90785e-10
3.35151e-10
3.08003e-10
2.84198e-10
2.58093e-10
2.28583e-10
1.98978e-10
1.69582e-10
1.40259e-10
1.10929e-10
8.14836e-11
5.18137e-11
2.18964e-11
-8.05811e-12
-3.76679e-11
-6.64242e-11
-9.35996e-11
-1.14443e-10
-1.34115e-10
-9.10363e-11
)
;

boundaryField
{
    top
    {
        type            zeroGradient;
    }
    bottom
    {
        type            zeroGradient;
    }
    inlet
    {
        type            fixedValue;
        value           uniform 0;
    }
    outlet
    {
        type            fixedValue;
        value           uniform 0;
    }
    frontAndBack
    {
        type            empty;
    }
}


// ************************************************************************* //
