/*--------------------------------*- C++ -*----------------------------------*\
  =========                 |
  \\      /  F ield         | OpenFOAM: The Open Source CFD Toolbox
   \\    /   O peration     | Website:  https://openfoam.org
    \\  /    A nd           | Version:  9
     \\/     M anipulation  |
\*---------------------------------------------------------------------------*/
FoamFile
{
    format      ascii;
    class       surfaceScalarField;
    location    "3.7";
    object      phi;
}
// * * * * * * * * * * * * * * * * * * * * * * * * * * * * * * * * * * * * * //

dimensions      [0 3 -1 0 0 0 0];

internalField   nonuniform List<scalar> 
760
(
1.25e-06
-1.16638e-15
1.25e-06
-9.7066e-16
1.25e-06
-4.62335e-16
1.25e-06
-2.62915e-16
1.25e-06
-1.50923e-16
1.25e-06
-8.29447e-17
1.25e-06
-4.54579e-17
1.25e-06
-2.38049e-17
1.25e-06
-1.16224e-17
1.25e-06
-5.29342e-18
1.25e-06
-1.98783e-18
1.25e-06
4.36124e-20
1.25e-06
1.91274e-18
1.25e-06
4.94312e-18
1.25e-06
1.17156e-17
1.25e-06
2.95862e-17
1.25e-06
7.05487e-17
1.25e-06
1.57705e-16
1.25e-06
4.96834e-16
5.73484e-16
3.75e-06
-2.80784e-15
3.75e-06
-2.63118e-15
3.75e-06
-1.50436e-15
3.75e-06
-8.95338e-16
3.75e-06
-5.28368e-16
3.75e-06
-3.00643e-16
3.75e-06
-1.67935e-16
3.75e-06
-9.04176e-17
3.75e-06
-4.60064e-17
3.75e-06
-2.14725e-17
3.75e-06
-8.00753e-18
3.75e-06
9.66726e-20
3.75e-06
7.13293e-18
3.75e-06
1.81775e-17
3.75e-06
4.23164e-17
3.75e-06
1.0052e-16
3.75e-06
2.30395e-16
3.75e-06
4.9469e-16
3.75e-06
1.20567e-15
1.27419e-15
6.25e-06
-4.2706e-15
6.25e-06
-4.28453e-15
6.25e-06
-2.72359e-15
6.25e-06
-1.68659e-15
6.25e-06
-1.02203e-15
6.25e-06
-5.95633e-16
6.25e-06
-3.38036e-16
6.25e-06
-1.84892e-16
6.25e-06
-9.58808e-17
6.25e-06
-4.56231e-17
6.25e-06
-1.76289e-17
6.25e-06
-9.75532e-19
6.25e-06
1.28441e-17
6.25e-06
3.36231e-17
6.25e-06
7.7886e-17
6.25e-06
1.79817e-16
6.25e-06
3.99291e-16
6.25e-06
8.25916e-16
6.25e-06
1.74944e-15
1.75074e-15
8.75e-06
-5.36587e-15
8.75e-06
-5.58877e-15
8.75e-06
-3.80411e-15
8.75e-06
-2.44095e-15
8.75e-06
-1.51488e-15
8.75e-06
-9.00409e-16
8.75e-06
-5.18031e-16
8.75e-06
-2.86726e-16
8.75e-06
-1.50493e-16
8.75e-06
-7.26378e-17
8.75e-06
-2.91021e-17
8.75e-06
-3.72084e-18
8.75e-06
1.61059e-17
8.75e-06
4.42788e-17
8.75e-06
1.03017e-16
8.75e-06
2.34648e-16
8.75e-06
5.10945e-16
8.75e-06
1.0217e-15
8.75e-06
1.99808e-15
1.93783e-15
1.125e-05
-5.98183e-15
1.125e-05
-6.36945e-15
1.125e-05
-4.55102e-15
1.125e-05
-3.00746e-15
1.125e-05
-1.90611e-15
1.125e-05
-1.15195e-15
1.125e-05
-6.70536e-16
1.125e-05
-3.74432e-16
1.125e-05
-1.98037e-16
1.125e-05
-9.64981e-17
1.125e-05
-3.99133e-17
1.125e-05
-8.025e-18
1.125e-05
1.47145e-17
1.125e-05
4.45476e-17
1.125e-05
1.05948e-16
1.125e-05
2.42586e-16
1.125e-05
5.25848e-16
1.125e-05
1.02862e-15
1.125e-05
1.91812e-15
1.81812e-15
1.375e-05
-6.08872e-15
1.375e-05
-6.56718e-15
1.375e-05
-4.86184e-15
1.375e-05
-3.29073e-15
1.375e-05
-2.12334e-15
1.375e-05
-1.3014e-15
1.375e-05
-7.6475e-16
1.375e-05
-4.29604e-16
1.375e-05
-2.28007e-16
1.375e-05
-1.11573e-16
1.375e-05
-4.74079e-17
1.375e-05
-1.31873e-17
1.375e-05
7.73555e-18
1.375e-05
3.15563e-17
1.375e-05
8.10717e-17
1.375e-05
1.94412e-16
1.375e-05
4.32813e-16
1.375e-05
8.42994e-16
1.375e-05
1.54022e-15
1.42404e-15
1.625e-05
-5.70676e-15
1.625e-05
-6.19389e-15
1.625e-05
-4.7092e-15
1.625e-05
-3.24867e-15
1.625e-05
-2.12823e-15
1.625e-05
-1.31968e-15
1.625e-05
-7.81067e-16
1.625e-05
-4.39934e-16
1.625e-05
-2.331e-16
1.625e-05
-1.13735e-16
1.625e-05
-4.93918e-17
1.625e-05
-1.81518e-17
1.625e-05
-4.39984e-18
1.625e-05
5.52926e-18
1.625e-05
2.91039e-17
1.625e-05
9.33939e-17
1.625e-05
2.42443e-16
1.625e-05
4.94667e-16
1.625e-05
9.25373e-16
8.10727e-16
1.875e-05
-4.89768e-15
1.875e-05
-5.31534e-15
1.875e-05
-4.12389e-15
1.875e-05
-2.88807e-15
1.875e-05
-1.91678e-15
1.875e-05
-1.20013e-15
1.875e-05
-7.13524e-16
1.875e-05
-4.01137e-16
1.875e-05
-2.10541e-16
1.875e-05
-1.01238e-16
1.875e-05
-4.46712e-17
1.875e-05
-2.18143e-17
1.875e-05
-2.01298e-17
1.875e-05
-3.05864e-17
1.875e-05
-4.38199e-17
1.875e-05
-4.76072e-17
1.875e-05
-1.91722e-17
1.875e-05
3.27928e-17
1.875e-05
1.52561e-16
4.95542e-17
2.125e-05
-3.75136e-15
2.125e-05
-4.03454e-15
2.125e-05
-3.18227e-15
2.125e-05
-2.25685e-15
2.125e-05
-1.5167e-15
2.125e-05
-9.579e-16
2.125e-05
-5.70263e-16
2.125e-05
-3.17568e-16
2.125e-05
-1.62595e-16
2.125e-05
-7.51103e-17
2.125e-05
-3.33685e-17
2.125e-05
-2.3345e-17
2.125e-05
-3.71754e-17
2.125e-05
-7.19027e-17
2.125e-05
-1.27871e-16
2.125e-05
-2.09527e-16
2.125e-05
-3.17207e-16
2.125e-05
-4.8384e-16
2.125e-05
-6.93359e-16
-7.82377e-16
2.375e-05
-2.37943e-15
2.375e-05
-2.482e-15
2.375e-05
-1.99434e-15
2.375e-05
-1.43539e-15
2.375e-05
-9.81835e-16
2.375e-05
-6.26954e-16
2.375e-05
-3.71891e-16
2.375e-05
-2.01388e-16
2.375e-05
-9.62233e-17
2.375e-05
-3.90542e-17
2.375e-05
-1.69876e-17
2.375e-05
-2.2417e-17
2.375e-05
-5.30588e-17
2.375e-05
-1.12586e-16
2.375e-05
-2.11409e-16
2.375e-05
-3.70634e-16
2.375e-05
-6.13647e-16
2.375e-05
-9.94611e-16
2.375e-05
-1.52805e-15
-1.60688e-15
2.625e-05
-9.07441e-16
2.625e-05
-8.06527e-16
2.625e-05
-6.93255e-16
2.625e-05
-5.26543e-16
2.625e-05
-3.84505e-16
2.625e-05
-2.54767e-16
2.625e-05
-1.48104e-16
2.625e-05
-7.05179e-17
2.625e-05
-2.1864e-17
2.625e-05
1.17706e-18
2.625e-05
1.80991e-18
2.625e-05
-1.9281e-17
2.625e-05
-6.55084e-17
2.625e-05
-1.46853e-16
2.625e-05
-2.82874e-16
2.625e-05
-5.09664e-16
2.625e-05
-8.72057e-16
2.625e-05
-1.44264e-15
2.625e-05
-2.273e-15
-2.34988e-15
2.875e-05
5.32034e-16
2.875e-05
8.32782e-16
2.875e-05
5.75468e-16
2.875e-05
3.55398e-16
2.875e-05
1.93824e-16
2.875e-05
1.04706e-16
2.875e-05
6.71327e-17
2.875e-05
5.44709e-17
2.875e-05
4.84316e-17
2.875e-05
3.88862e-17
2.875e-05
1.97519e-17
2.875e-05
-1.46892e-17
2.875e-05
-7.28564e-17
2.875e-05
-1.69852e-16
2.875e-05
-3.32392e-16
2.875e-05
-6.08459e-16
2.875e-05
-1.06128e-15
2.875e-05
-1.77914e-15
2.875e-05
-2.85936e-15
-2.94503e-15
3.125e-05
1.80622e-15
3.125e-05
2.27486e-15
3.125e-05
1.66544e-15
3.125e-05
1.09708e-15
3.125e-05
6.7352e-16
3.125e-05
3.99292e-16
3.125e-05
2.41351e-16
3.125e-05
1.54097e-16
3.125e-05
1.03356e-16
3.125e-05
6.77414e-17
3.125e-05
3.36626e-17
3.125e-05
-9.66198e-18
3.125e-05
-7.42053e-17
3.125e-05
-1.78307e-16
3.125e-05
-3.53119e-16
3.125e-05
-6.5412e-16
3.125e-05
-1.15843e-15
3.125e-05
-1.96686e-15
3.125e-05
-3.23107e-15
-3.33706e-15
3.375e-05
2.79101e-15
3.375e-05
3.36663e-15
3.375e-05
2.44267e-15
3.375e-05
1.60041e-15
3.375e-05
9.8862e-16
3.375e-05
5.87517e-16
3.375e-05
3.4955e-16
3.375e-05
2.13779e-16
3.375e-05
1.34612e-16
3.375e-05
8.31986e-17
3.375e-05
4.11566e-17
3.375e-05
-5.17824e-18
3.375e-05
-6.94916e-17
3.375e-05
-1.71064e-16
3.375e-05
-3.42129e-16
3.375e-05
-6.40543e-16
3.375e-05
-1.15131e-15
3.375e-05
-1.98307e-15
3.375e-05
-3.34796e-15
-3.485e-15
3.625e-05
3.3771e-15
3.625e-05
3.97414e-15
3.625e-05
2.80282e-15
3.625e-05
1.79813e-15
3.625e-05
1.0994e-15
3.625e-05
6.46908e-16
3.625e-05
3.79562e-16
3.625e-05
2.27057e-16
3.625e-05
1.38866e-16
3.625e-05
8.3521e-17
3.625e-05
4.13035e-17
3.625e-05
-1.91971e-18
3.625e-05
-5.94403e-17
3.625e-05
-1.49201e-16
3.625e-05
-3.01047e-16
3.625e-05
-5.69582e-16
3.625e-05
-1.04035e-15
3.625e-05
-1.82271e-15
3.625e-05
-3.18893e-15
-3.36472e-15
3.875e-05
3.48722e-15
3.875e-05
4.0029e-15
3.875e-05
2.69171e-15
3.875e-05
1.67203e-15
3.875e-05
1.00326e-15
3.875e-05
5.80765e-16
3.875e-05
3.35603e-16
3.875e-05
1.97586e-16
3.875e-05
1.18744e-16
3.875e-05
7.03669e-17
3.875e-05
3.48418e-17
3.875e-05
-8.16626e-20
3.875e-05
-4.55282e-17
3.875e-05
-1.16101e-16
3.875e-05
-2.3614e-16
3.875e-05
-4.51666e-16
3.875e-05
-8.4039e-16
3.875e-05
-1.50186e-15
3.875e-05
-2.75782e-15
-2.97428e-15
4.125e-05
3.08187e-15
4.125e-05
3.41899e-15
4.125e-05
2.13592e-15
4.125e-05
1.26891e-15
4.125e-05
7.4337e-16
4.125e-05
4.20783e-16
4.125e-05
2.39065e-16
4.125e-05
1.3887e-16
4.125e-05
8.25138e-17
4.125e-05
4.85441e-17
4.125e-05
2.41456e-17
4.125e-05
5.93437e-19
4.125e-05
-2.98743e-17
4.125e-05
-7.7214e-17
4.125e-05
-1.5819e-16
4.125e-05
-3.05947e-16
4.125e-05
-5.81927e-16
4.125e-05
-1.06268e-15
4.125e-05
-2.09012e-15
-2.33826e-15
4.375e-05
2.20543e-15
4.375e-05
2.30807e-15
4.375e-05
1.27535e-15
4.375e-05
7.15892e-16
4.375e-05
4.08297e-16
4.375e-05
2.2446e-16
4.375e-05
1.24976e-16
4.375e-05
7.17995e-17
4.375e-05
4.24016e-17
4.375e-05
2.49666e-17
4.375e-05
1.25844e-17
4.375e-05
6.29787e-19
4.375e-05
-1.5066e-17
4.375e-05
-3.96121e-17
4.375e-05
-8.17014e-17
4.375e-05
-1.59758e-16
4.375e-05
-3.12523e-16
4.375e-05
-5.8024e-16
4.375e-05
-1.27181e-15
-1.52182e-15
4.625e-05
9.74614e-16
4.625e-05
9.34486e-16
4.625e-05
4.16872e-16
4.625e-05
2.14453e-16
4.625e-05
1.20112e-16
4.625e-05
6.29802e-17
4.625e-05
3.41238e-17
4.625e-05
1.94465e-17
4.625e-05
1.1505e-17
4.625e-05
6.89777e-18
4.625e-05
3.66969e-18
4.625e-05
4.36104e-19
4.625e-05
-4.10884e-18
4.625e-05
-1.13169e-17
4.625e-05
-2.34942e-17
4.625e-05
-4.64553e-17
4.625e-05
-9.47284e-17
4.625e-05
-1.75158e-16
4.625e-05
-4.65121e-16
-6.2992e-16
4.875e-05
4.875e-05
4.875e-05
4.875e-05
4.875e-05
4.875e-05
4.875e-05
4.875e-05
4.875e-05
4.875e-05
4.875e-05
4.875e-05
4.875e-05
4.875e-05
4.875e-05
4.875e-05
4.875e-05
4.875e-05
4.875e-05
)
;

boundaryField
{
    top
    {
        type            calculated;
        value           uniform 0;
    }
    bottom
    {
        type            calculated;
        value           uniform 0;
    }
    inlet
    {
        type            calculated;
        value           nonuniform List<scalar> 
20
(
-1.25e-06
-3.75e-06
-6.25e-06
-8.75e-06
-1.125e-05
-1.375e-05
-1.625e-05
-1.875e-05
-2.125e-05
-2.375e-05
-2.625e-05
-2.875e-05
-3.125e-05
-3.375e-05
-3.625e-05
-3.875e-05
-4.125e-05
-4.375e-05
-4.625e-05
-4.875e-05
)
;
    }
    outlet
    {
        type            calculated;
        value           nonuniform List<scalar> 
20
(
1.25e-06
3.75e-06
6.25e-06
8.75e-06
1.125e-05
1.375e-05
1.625e-05
1.875e-05
2.125e-05
2.375e-05
2.625e-05
2.875e-05
3.125e-05
3.375e-05
3.625e-05
3.875e-05
4.125e-05
4.375e-05
4.625e-05
4.875e-05
)
;
    }
    frontAndBack
    {
        type            empty;
        value           nonuniform List<scalar> 0();
    }
}


// ************************************************************************* //
