/*--------------------------------*- C++ -*----------------------------------*\
  =========                 |
  \\      /  F ield         | OpenFOAM: The Open Source CFD Toolbox
   \\    /   O peration     | Website:  https://openfoam.org
    \\  /    A nd           | Version:  9
     \\/     M anipulation  |
\*---------------------------------------------------------------------------*/
FoamFile
{
    format      ascii;
    class       volVectorField;
    location    "3.7";
    object      U;
}
// * * * * * * * * * * * * * * * * * * * * * * * * * * * * * * * * * * * * * //

dimensions      [0 1 -1 0 0 0 0];

internalField   nonuniform List<vector> 
400
(
(0.025 -5.7088e-12 0)
(0.025 -4.56755e-12 0)
(0.025 -1.92165e-12 0)
(0.025 -1.02492e-12 0)
(0.025 -5.65877e-13 0)
(0.025 -3.00168e-13 0)
(0.025 -1.61899e-13 0)
(0.025 -8.10414e-14 0)
(0.025 -3.65425e-14 0)
(0.025 -1.55789e-14 0)
(0.025 -5.61437e-15 0)
(0.025 8.32535e-16 0)
(0.025 7.54158e-15 0)
(0.025 1.89602e-14 0)
(0.025 4.52294e-14 0)
(0.025 1.20014e-13 0)
(0.025 2.99185e-13 0)
(0.025 7.1226e-13 0)
(0.025 2.50592e-12 0)
(0.025 2.93731e-12 0)
(0.075 -1.96548e-11 0)
(0.075 -1.74748e-11 0)
(0.075 -9.12485e-12 0)
(0.075 -5.23865e-12 0)
(0.075 -3.02602e-12 0)
(0.075 -1.68265e-12 0)
(0.075 -9.25208e-13 0)
(0.075 -4.89364e-13 0)
(0.075 -2.42686e-13 0)
(0.075 -1.10132e-13 0)
(0.075 -3.91782e-14 0)
(0.075 3.71827e-15 0)
(0.075 4.2411e-14 0)
(0.075 1.0546e-13 0)
(0.075 2.46907e-13 0)
(0.075 6.03813e-13 0)
(0.075 1.41939e-12 0)
(0.075 3.15745e-12 0)
(0.075 8.57224e-12 0)
(0.075 9.40937e-12 0)
(0.125 -3.57436e-11 0)
(0.125 -3.47121e-11 0)
(0.125 -2.09662e-11 0)
(0.125 -1.26858e-11 0)
(0.125 -7.56699e-12 0)
(0.125 -4.35129e-12 0)
(0.125 -2.44697e-12 0)
(0.125 -1.32603e-12 0)
(0.125 -6.80406e-13 0)
(0.125 -3.2033e-13 0)
(0.125 -1.21078e-13 0)
(0.125 -1.05613e-15 0)
(0.125 1.02217e-13 0)
(0.125 2.62124e-13 0)
(0.125 6.0723e-13 0)
(0.125 1.41837e-12 0)
(0.125 3.19546e-12 0)
(0.125 6.7423e-12 0)
(0.125 1.51684e-11 0)
(0.125 1.56004e-11 0)
(0.175 -4.91813e-11 0)
(0.175 -5.02997e-11 0)
(0.175 -3.31674e-11 0)
(0.175 -2.08917e-11 0)
(0.175 -1.27981e-11 0)
(0.175 -7.52532e-12 0)
(0.175 -4.29628e-12 0)
(0.175 -2.36335e-12 0)
(0.175 -1.23349e-12 0)
(0.175 -5.91336e-13 0)
(0.175 -2.32169e-13 0)
(0.175 -1.94619e-14 0)
(0.175 1.53735e-13 0)
(0.175 4.08732e-13 0)
(0.175 9.45427e-13 0)
(0.175 2.16034e-12 0)
(0.175 4.73749e-12 0)
(0.175 9.61651e-12 0)
(0.175 1.94207e-11 0)
(0.175 1.91608e-11 0)
(0.225 -5.79942e-11 0)
(0.225 -6.11143e-11 0)
(0.225 -4.27317e-11 0)
(0.225 -2.78354e-11 0)
(0.225 -1.74537e-11 0)
(0.225 -1.0459e-11 0)
(0.225 -6.05174e-12 0)
(0.225 -3.36542e-12 0)
(0.225 -1.77467e-12 0)
(0.225 -8.61586e-13 0)
(0.225 -3.50652e-13 0)
(0.225 -5.59188e-14 0)
(0.225 1.67114e-13 0)
(0.225 4.7441e-13 0)
(0.225 1.1086e-12 0)
(0.225 2.51631e-12 0)
(0.225 5.43974e-12 0)
(0.225 1.07206e-11 0)
(0.225 2.03226e-11 0)
(0.225 1.9516e-11 0)
(0.275 -6.16144e-11 0)
(0.275 -6.60747e-11 0)
(0.275 -4.81841e-11 0)
(0.275 -3.22579e-11 0)
(0.275 -2.06368e-11 0)
(0.275 -1.25642e-11 0)
(0.275 -7.3509e-12 0)
(0.275 -4.11987e-12 0)
(0.275 -2.18538e-12 0)
(0.275 -1.06892e-12 0)
(0.275 -4.48547e-13 0)
(0.275 -1.05703e-13 0)
(0.275 1.25589e-13 0)
(0.275 4.1365e-13 0)
(0.275 1.00418e-12 0)
(0.275 2.32113e-12 0)
(0.275 5.04721e-12 0)
(0.275 9.79323e-12 0)
(0.275 1.79287e-11 0)
(0.275 1.68327e-11 0)
(0.325 -6.01317e-11 0)
(0.325 -6.51049e-11 0)
(0.325 -4.89683e-11 0)
(0.325 -3.35077e-11 0)
(0.325 -2.18015e-11 0)
(0.325 -1.34492e-11 0)
(0.325 -7.93715e-12 0)
(0.325 -4.4693e-12 0)
(0.325 -2.37403e-12 0)
(0.325 -1.1629e-12 0)
(0.325 -5.00512e-13 0)
(0.325 -1.59379e-13 0)
(0.325 2.70741e-14 0)
(0.325 2.13903e-13 0)
(0.325 6.10284e-13 0)
(0.325 1.5533e-12 0)
(0.325 3.58186e-12 0)
(0.325 7.02284e-12 0)
(0.325 1.27984e-11 0)
(0.325 1.1635e-11 0)
(0.375 -5.39855e-11 0)
(0.375 -5.86454e-11 0)
(0.375 -4.51473e-11 0)
(0.375 -3.14275e-11 0)
(0.375 -2.07406e-11 0)
(0.375 -1.29336e-11 0)
(0.375 -7.67943e-12 0)
(0.375 -4.32769e-12 0)
(0.375 -2.28783e-12 0)
(0.375 -1.11242e-12 0)
(0.375 -4.88387e-13 0)
(0.375 -2.0517e-13 0)
(0.375 -1.17413e-13 0)
(0.375 -1.0718e-13 0)
(0.375 -3.49599e-14 0)
(0.375 3.02335e-13 0)
(0.375 1.24508e-12 0)
(0.375 2.83824e-12 0)
(0.375 5.66535e-12 0)
(0.375 4.57628e-12 0)
(0.425 -4.39544e-11 0)
(0.425 -4.75679e-11 0)
(0.425 -3.72836e-11 0)
(0.425 -2.63097e-11 0)
(0.425 -1.75818e-11 0)
(0.425 -1.10636e-11 0)
(0.425 -6.58971e-12 0)
(0.425 -3.69537e-12 0)
(0.425 -1.92383e-12 0)
(0.425 -9.13377e-13 0)
(0.425 -4.06226e-13 0)
(0.425 -2.32643e-13 0)
(0.425 -2.87407e-13 0)
(0.425 -5.08034e-13 0)
(0.425 -8.4706e-13 0)
(0.425 -1.26349e-12 0)
(0.425 -1.64363e-12 0)
(0.425 -2.20095e-12 0)
(0.425 -2.63037e-12 0)
(0.425 -3.58395e-12 0)
(0.475 -3.10629e-11 0)
(0.475 -3.30623e-11 0)
(0.475 -2.63356e-11 0)
(0.475 -1.88179e-11 0)
(0.475 -1.27487e-11 0)
(0.475 -8.09498e-12 0)
(0.475 -4.81778e-12 0)
(0.475 -2.65834e-12 0)
(0.475 -1.33001e-12 0)
(0.475 -5.90296e-13 0)
(0.475 -2.62369e-13 0)
(0.475 -2.35604e-13 0)
(0.475 -4.57912e-13 0)
(0.475 -9.32519e-13 0)
(0.475 -1.71391e-12 0)
(0.475 -2.93193e-12 0)
(0.475 -4.70764e-12 0)
(0.475 -7.48172e-12 0)
(0.475 -1.12288e-11 0)
(0.475 -1.20574e-11 0)
(0.525 -1.65167e-11 0)
(0.525 -1.65479e-11 0)
(0.525 -1.35457e-11 0)
(0.525 -9.89446e-12 0)
(0.525 -6.89345e-12 0)
(0.525 -4.45015e-12 0)
(0.525 -2.62542e-12 0)
(0.525 -1.37352e-12 0)
(0.525 -5.9725e-13 0)
(0.525 -1.92637e-13 0)
(0.525 -7.86324e-14 0)
(0.525 -2.13702e-13 0)
(0.525 -6.04203e-13 0)
(0.525 -1.32025e-12 0)
(0.525 -2.5152e-12 0)
(0.525 -4.48086e-12 0)
(0.525 -7.56428e-12 0)
(0.525 -1.24044e-11 0)
(0.525 -1.93037e-11 0)
(0.525 -2.0071e-11 0)
(0.575 -1.6239e-12 0)
(0.575 4.14449e-13 0)
(0.575 -3.34978e-13 0)
(0.575 -6.54186e-13 0)
(0.575 -8.10312e-13 0)
(0.575 -6.55563e-13 0)
(0.575 -3.44327e-13 0)
(0.575 -4.2075e-14 0)
(0.575 1.56609e-13 0)
(0.575 2.14234e-13 0)
(0.575 1.13733e-13 0)
(0.575 -1.72419e-13 0)
(0.575 -7.05987e-13 0)
(0.575 -1.61615e-12 0)
(0.575 -3.14018e-12 0)
(0.575 -5.70739e-12 0)
(0.575 -9.86747e-12 0)
(0.575 -1.64309e-11 0)
(0.575 -2.61092e-11 0)
(0.575 -2.69138e-11 0)
(0.625 1.22676e-11 0)
(0.625 1.62001e-11 0)
(0.625 1.18062e-11 0)
(0.625 7.73148e-12 0)
(0.625 4.66665e-12 0)
(0.625 2.73635e-12 0)
(0.625 1.67832e-12 0)
(0.625 1.12601e-12 0)
(0.625 8.08785e-13 0)
(0.625 5.61643e-13 0)
(0.625 2.80567e-13 0)
(0.625 -1.21333e-13 0)
(0.625 -7.50188e-13 0)
(0.625 -1.77831e-12 0)
(0.625 -3.50261e-12 0)
(0.625 -6.45182e-12 0)
(0.625 -1.13405e-11 0)
(0.625 -1.91233e-11 0)
(0.625 -3.10124e-11 0)
(0.625 -3.19693e-11 0)
(0.675 2.3856e-11 0)
(0.675 2.9213e-11 0)
(0.675 2.14397e-11 0)
(0.675 1.4169e-11 0)
(0.675 8.7788e-12 0)
(0.675 5.23539e-12 0)
(0.675 3.14048e-12 0)
(0.675 1.9512e-12 0)
(0.675 1.25569e-12 0)
(0.675 7.91955e-13 0)
(0.675 3.92304e-13 0)
(0.675 -7.12842e-14 0)
(0.675 -7.32062e-13 0)
(0.675 -1.78389e-12 0)
(0.675 -3.55203e-12 0)
(0.675 -6.61609e-12 0)
(0.675 -1.1803e-11 0)
(0.675 -2.01746e-11 0)
(0.675 -3.35252e-11 0)
(0.675 -3.47494e-11 0)
(0.725 3.19478e-11 0)
(0.725 3.79837e-11 0)
(0.725 2.73315e-11 0)
(0.725 1.7791e-11 0)
(0.725 1.09684e-11 0)
(0.725 6.50228e-12 0)
(0.725 3.84455e-12 0)
(0.725 2.3214e-12 0)
(0.725 1.43523e-12 0)
(0.725 8.71564e-13 0)
(0.725 4.31115e-13 0)
(0.725 -3.12017e-14 0)
(0.725 -6.55175e-13 0)
(0.725 -1.63236e-12 0)
(0.725 -3.28124e-12 0)
(0.725 -6.17728e-12 0)
(0.725 -1.11923e-11 0)
(0.725 -1.94391e-11 0)
(0.725 -3.33322e-11 0)
(0.725 -3.49213e-11 0)
(0.775 3.55817e-11 0)
(0.775 4.13122e-11 0)
(0.775 2.86182e-11 0)
(0.775 1.81233e-11 0)
(0.775 1.09961e-11 0)
(0.775 6.42723e-12 0)
(0.775 3.7439e-12 0)
(0.775 2.21947e-12 0)
(0.775 1.34244e-12 0)
(0.775 7.99382e-13 0)
(0.775 3.95648e-13 0)
(0.775 -5.76455e-15 0)
(0.775 -5.30749e-13 0)
(0.775 -1.34621e-12 0)
(0.775 -2.72958e-12 0)
(0.775 -5.19534e-12 0)
(0.775 -9.57965e-12 0)
(0.775 -1.69574e-11 0)
(0.775 -3.03265e-11 0)
(0.775 -3.23419e-11 0)
(0.825 3.40276e-11 0)
(0.825 3.83799e-11 0)
(0.825 2.50359e-11 0)
(0.825 1.52404e-11 0)
(0.825 9.03863e-12 0)
(0.825 5.17658e-12 0)
(0.825 2.96534e-12 0)
(0.825 1.73198e-12 0)
(0.825 1.0329e-12 0)
(0.825 6.08593e-13 0)
(0.825 3.02082e-13 0)
(0.825 5.75022e-15 0)
(0.825 -3.76496e-13 0)
(0.825 -9.69226e-13 0)
(0.825 -1.98122e-12 0)
(0.825 -3.81461e-12 0)
(0.825 -7.18007e-12 0)
(0.825 -1.29868e-11 0)
(0.825 -2.4631e-11 0)
(0.825 -2.70583e-11 0)
(0.875 2.71761e-11 0)
(0.875 2.93164e-11 0)
(0.875 1.73503e-11 0)
(0.875 1.00112e-11 0)
(0.875 5.77569e-12 0)
(0.875 3.22038e-12 0)
(0.875 1.80944e-12 0)
(0.875 1.04348e-12 0)
(0.875 6.16628e-13 0)
(0.875 3.61807e-13 0)
(0.875 1.80689e-13 0)
(0.875 6.97797e-15 0)
(0.875 -2.18477e-13 0)
(0.875 -5.6949e-13 0)
(0.875 -1.17023e-12 0)
(0.875 -2.27686e-12 0)
(0.875 -4.39522e-12 0)
(0.875 -8.11814e-12 0)
(0.875 -1.68208e-11 0)
(0.875 -1.94439e-11 0)
(0.925 1.61347e-11 0)
(0.925 1.6247e-11 0)
(0.925 8.15908e-12 0)
(0.925 4.33147e-12 0)
(0.925 2.41877e-12 0)
(0.925 1.29381e-12 0)
(0.925 7.07153e-13 0)
(0.925 4.02943e-13 0)
(0.925 2.3754e-13 0)
(0.925 1.40803e-13 0)
(0.925 7.2535e-14 0)
(0.925 5.58759e-15 0)
(0.925 -8.47864e-14 0)
(0.925 -2.27346e-13 0)
(0.925 -4.71841e-13 0)
(0.925 -9.31454e-13 0)
(0.925 -1.86431e-12 0)
(0.925 -3.49592e-12 0)
(0.925 -8.40403e-12 0)
(0.925 -1.06025e-11 0)
(0.975 4.98467e-12 0)
(0.975 4.66036e-12 0)
(0.975 1.8616e-12 0)
(0.975 8.66356e-13 0)
(0.975 4.65277e-13 0)
(0.975 2.3191e-13 0)
(0.975 1.21555e-13 0)
(0.975 6.85139e-14 0)
(0.975 4.03694e-14 0)
(0.975 2.41388e-14 0)
(0.975 1.27676e-14 0)
(0.975 8.37545e-16 0)
(0.975 -1.72935e-14 0)
(0.975 -4.65722e-14 0)
(0.975 -9.43001e-14 0)
(0.975 -1.85462e-13 0)
(0.975 -3.9048e-13 0)
(0.975 -7.33005e-13 0)
(0.975 -2.18906e-12 0)
(0.975 -3.05922e-12 0)
)
;

boundaryField
{
    top
    {
        type            fixedValue;
        value           uniform (1 0 0);
    }
    bottom
    {
        type            fixedValue;
        value           uniform (0 0 0);
    }
    inlet
    {
        type            zeroGradient;
    }
    outlet
    {
        type            zeroGradient;
    }
    frontAndBack
    {
        type            empty;
    }
}


// ************************************************************************* //
