/*--------------------------------*- C++ -*----------------------------------*\
  =========                 |
  \\      /  F ield         | OpenFOAM: The Open Source CFD Toolbox
   \\    /   O peration     | Website:  https://openfoam.org
    \\  /    A nd           | Version:  9
     \\/     M anipulation  |
\*---------------------------------------------------------------------------*/
FoamFile
{
    format      ascii;
    class       volScalarField;
    location    "3.3";
    object      p;
}
// * * * * * * * * * * * * * * * * * * * * * * * * * * * * * * * * * * * * * //

dimensions      [0 2 -2 0 0 0 0];

internalField   nonuniform List<scalar> 
400
(
6.42946e-10
1.06555e-09
1.03036e-09
9.80061e-10
8.97478e-10
7.99672e-10
6.97784e-10
5.94123e-10
4.90416e-10
3.87536e-10
2.85016e-10
1.82196e-10
7.88424e-11
-2.49993e-11
-1.29221e-10
-2.34022e-10
-3.36706e-10
-4.29884e-10
-5.47577e-10
-3.45943e-10
6.09764e-10
1.01518e-09
9.76865e-10
9.48019e-10
8.78048e-10
7.87961e-10
6.91011e-10
5.90338e-10
4.88385e-10
3.86518e-10
2.84582e-10
1.82139e-10
7.91311e-11
-2.41892e-11
-1.27328e-10
-2.29934e-10
-3.28027e-10
-4.09942e-10
-5.34548e-10
-3.3708e-10
6.1651e-10
1.01961e-09
9.4697e-10
9.27392e-10
8.64184e-10
7.78796e-10
6.85358e-10
5.86988e-10
4.8645e-10
3.85423e-10
2.83998e-10
1.81912e-10
7.92322e-11
-2.36555e-11
-1.2602e-10
-2.27375e-10
-3.236e-10
-4.0026e-10
-5.51755e-10
-3.49482e-10
6.4018e-10
1.06405e-09
9.40675e-10
9.18685e-10
8.5669e-10
7.72853e-10
6.81262e-10
5.84305e-10
4.8471e-10
3.84284e-10
2.83267e-10
1.81492e-10
7.90796e-11
-2.35335e-11
-1.25555e-10
-2.26731e-10
-3.23624e-10
-4.00958e-10
-5.86567e-10
-3.68675e-10
6.66106e-10
1.12562e-09
9.46589e-10
9.16702e-10
8.53024e-10
7.68919e-10
6.78136e-10
5.82003e-10
4.8304e-10
3.83076e-10
2.82411e-10
1.80911e-10
7.87045e-11
-2.3769e-11
-1.25765e-10
-2.27409e-10
-3.26319e-10
-4.06662e-10
-6.25507e-10
-3.86914e-10
6.90043e-10
1.19215e-09
9.58562e-10
9.18362e-10
8.51648e-10
7.66194e-10
6.75557e-10
5.7989e-10
4.81382e-10
3.81802e-10
2.81457e-10
1.80202e-10
7.81496e-11
-2.428e-11
-1.26437e-10
-2.28861e-10
-3.30286e-10
-4.14118e-10
-6.61223e-10
-4.01754e-10
7.1116e-10
1.25691e-09
9.73077e-10
9.21782e-10
8.51498e-10
7.64144e-10
6.73255e-10
5.77854e-10
4.79714e-10
3.80483e-10
2.80435e-10
1.79403e-10
7.74681e-11
-2.49692e-11
-1.27362e-10
-2.30604e-10
-3.34515e-10
-4.21355e-10
-6.89974e-10
-4.12765e-10
7.28618e-10
1.31436e-09
9.8729e-10
9.25314e-10
8.51614e-10
7.62275e-10
6.70994e-10
5.75795e-10
4.78011e-10
3.79129e-10
2.79377e-10
1.78559e-10
7.67293e-11
-2.57164e-11
-1.28306e-10
-2.32176e-10
-3.38088e-10
-4.26893e-10
-7.09158e-10
-4.19537e-10
7.41892e-10
1.36023e-09
9.98897e-10
9.27676e-10
8.51238e-10
7.60223e-10
6.68614e-10
5.73658e-10
4.76269e-10
3.77762e-10
2.78317e-10
1.77721e-10
7.60118e-11
-2.63912e-11
-1.29042e-10
-2.33164e-10
-3.40268e-10
-4.29649e-10
-7.17303e-10
-4.21957e-10
7.50587e-10
1.39136e-09
1.00632e-09
9.28052e-10
8.49926e-10
7.57806e-10
6.6607e-10
5.71453e-10
4.74517e-10
3.76416e-10
2.77296e-10
1.7694e-10
7.53913e-11
-2.68762e-11
-1.29381e-10
-2.33264e-10
-3.40546e-10
-4.28996e-10
-7.13862e-10
-4.20054e-10
7.5442e-10
1.4057e-09
1.00867e-09
9.26124e-10
8.47558e-10
7.55046e-10
6.63437e-10
5.69257e-10
4.72819e-10
3.75142e-10
2.76356e-10
1.76261e-10
7.49271e-11
-2.70878e-11
-1.29201e-10
-2.32312e-10
-3.38681e-10
-4.24738e-10
-6.99104e-10
-4.14013e-10
7.53137e-10
1.40227e-09
1.00576e-09
9.22044e-10
8.4432e-10
7.52147e-10
6.60897e-10
5.6721e-10
4.71269e-10
3.74002e-10
2.75538e-10
1.75717e-10
7.46521e-11
-2.69905e-11
-1.28474e-10
-2.30306e-10
-3.34709e-10
-4.17078e-10
-6.73986e-10
-4.04116e-10
7.46508e-10
1.38117e-09
9.98127e-10
9.16411e-10
8.4067e-10
7.49458e-10
6.58707e-10
5.65487e-10
4.69981e-10
3.73061e-10
2.7488e-10
1.75326e-10
7.45674e-11
-2.66083e-11
-1.27266e-10
-2.27412e-10
-3.28944e-10
-4.06604e-10
-6.40094e-10
-3.90755e-10
7.34457e-10
1.34376e-09
9.87041e-10
9.10256e-10
8.37287e-10
7.47428e-10
6.57159e-10
5.64275e-10
4.69065e-10
3.72381e-10
2.74406e-10
1.75086e-10
7.46393e-11
-2.60245e-11
-1.25751e-10
-2.23968e-10
-3.21981e-10
-3.94277e-10
-5.99635e-10
-3.74464e-10
7.17018e-10
1.2929e-09
9.7462e-10
9.04963e-10
8.3501e-10
7.4653e-10
6.56531e-10
5.63732e-10
4.68608e-10
3.72003e-10
2.74129e-10
1.74975e-10
7.48051e-11
-2.53728e-11
-1.24188e-10
-2.20461e-10
-3.14665e-10
-3.81424e-10
-5.55429e-10
-3.55946e-10
6.94682e-10
1.23315e-09
9.63633e-10
9.02153e-10
8.34689e-10
7.47193e-10
6.57023e-10
5.63956e-10
4.68654e-10
3.71943e-10
2.74039e-10
1.74958e-10
7.49791e-11
-2.48219e-11
-1.22892e-10
-2.1748e-10
-3.08038e-10
-3.69653e-10
-5.10906e-10
-3.36116e-10
6.67821e-10
1.17081e-09
9.57673e-10
9.0345e-10
8.37109e-10
7.49707e-10
6.58728e-10
5.64959e-10
4.69194e-10
3.72184e-10
2.74113e-10
1.74986e-10
7.50654e-11
-2.45555e-11
-1.22202e-10
-2.15665e-10
-3.03279e-10
-3.60911e-10
-4.70102e-10
-3.15961e-10
6.4035e-10
1.11819e-09
9.62794e-10
9.1144e-10
8.43289e-10
7.54454e-10
6.6174e-10
5.66748e-10
4.70208e-10
3.72702e-10
2.74321e-10
1.75004e-10
7.49497e-11
-2.47965e-11
-1.22523e-10
-2.15798e-10
-3.02002e-10
-3.58325e-10
-4.39711e-10
-2.98184e-10
6.24781e-10
1.09835e-09
9.90189e-10
9.30376e-10
8.55012e-10
7.62067e-10
6.66278e-10
5.69387e-10
4.71724e-10
3.73516e-10
2.74666e-10
1.74985e-10
7.45493e-11
-2.57315e-11
-1.24269e-10
-2.18809e-10
-3.0634e-10
-3.66903e-10
-4.31552e-10
-2.9115e-10
6.44123e-10
1.13153e-09
1.0399e-09
9.5952e-10
8.71369e-10
7.71728e-10
6.7178e-10
5.72532e-10
4.73534e-10
3.74513e-10
2.751e-10
1.7493e-10
7.39268e-11
-2.72078e-11
-1.27176e-10
-2.2427e-10
-3.16024e-10
-3.86405e-10
-4.52812e-10
-3.07358e-10
)
;

boundaryField
{
    top
    {
        type            zeroGradient;
    }
    bottom
    {
        type            zeroGradient;
    }
    inlet
    {
        type            fixedValue;
        value           uniform 0;
    }
    outlet
    {
        type            fixedValue;
        value           uniform 0;
    }
    frontAndBack
    {
        type            empty;
    }
}


// ************************************************************************* //
