/*--------------------------------*- C++ -*----------------------------------*\
  =========                 |
  \\      /  F ield         | OpenFOAM: The Open Source CFD Toolbox
   \\    /   O peration     | Website:  https://openfoam.org
    \\  /    A nd           | Version:  9
     \\/     M anipulation  |
\*---------------------------------------------------------------------------*/
FoamFile
{
    format      ascii;
    class       surfaceScalarField;
    location    "3.3";
    object      phi;
}
// * * * * * * * * * * * * * * * * * * * * * * * * * * * * * * * * * * * * * //

dimensions      [0 3 -1 0 0 0 0];

internalField   nonuniform List<scalar> 
760
(
1.25e-06
-3.93786e-15
1.25e-06
-3.27706e-15
1.25e-06
-1.561e-15
1.25e-06
-8.87622e-16
1.25e-06
-5.0952e-16
1.25e-06
-2.80022e-16
1.25e-06
-1.53463e-16
1.25e-06
-8.03662e-17
1.25e-06
-3.92389e-17
1.25e-06
-1.78715e-17
1.25e-06
-6.71077e-18
1.25e-06
1.46983e-19
1.25e-06
6.45808e-18
1.25e-06
1.66919e-17
1.25e-06
3.95506e-17
1.25e-06
9.98691e-17
1.25e-06
2.38144e-16
1.25e-06
5.32549e-16
1.25e-06
1.67735e-15
1.93616e-15
3.75e-06
-9.47957e-15
3.75e-06
-8.88317e-15
3.75e-06
-5.07892e-15
3.75e-06
-3.02275e-15
3.75e-06
-1.78382e-15
3.75e-06
-1.015e-15
3.75e-06
-5.66974e-16
3.75e-06
-3.05274e-16
3.75e-06
-1.55334e-16
3.75e-06
-7.24993e-17
3.75e-06
-2.70368e-17
3.75e-06
3.25286e-19
3.75e-06
2.40868e-17
3.75e-06
6.13815e-17
3.75e-06
1.4288e-16
3.75e-06
3.39372e-16
3.75e-06
7.77827e-16
3.75e-06
1.67016e-15
3.75e-06
4.07048e-15
4.30177e-15
6.25e-06
-1.4418e-14
6.25e-06
-1.44651e-14
6.25e-06
-9.19512e-15
6.25e-06
-5.6941e-15
6.25e-06
-3.45048e-15
6.25e-06
-2.01093e-15
6.25e-06
-1.14126e-15
6.25e-06
-6.24245e-16
6.25e-06
-3.23722e-16
6.25e-06
-1.5404e-16
6.25e-06
-5.95204e-17
6.25e-06
-3.29664e-18
6.25e-06
4.33712e-17
6.25e-06
1.13542e-16
6.25e-06
2.6298e-16
6.25e-06
6.07099e-16
6.25e-06
1.34804e-15
6.25e-06
2.78837e-15
6.25e-06
5.90628e-15
5.91068e-15
8.75e-06
-1.81158e-14
8.75e-06
-1.88683e-14
8.75e-06
-1.28431e-14
8.75e-06
-8.24089e-15
8.75e-06
-5.11439e-15
8.75e-06
-3.03989e-15
8.75e-06
-1.74895e-15
8.75e-06
-9.68046e-16
8.75e-06
-5.08107e-16
8.75e-06
-2.45253e-16
8.75e-06
-9.82546e-17
8.75e-06
-1.25619e-17
8.75e-06
5.43855e-17
8.75e-06
1.49523e-16
8.75e-06
3.47835e-16
8.75e-06
7.9222e-16
8.75e-06
1.725e-15
8.75e-06
3.44936e-15
8.75e-06
6.74573e-15
6.54233e-15
1.125e-05
-2.01954e-14
1.125e-05
-2.1504e-14
1.125e-05
-1.53647e-14
1.125e-05
-1.01535e-14
1.125e-05
-6.43521e-15
1.125e-05
-3.88912e-15
1.125e-05
-2.26383e-15
1.125e-05
-1.26415e-15
1.125e-05
-6.68616e-16
1.125e-05
-3.25815e-16
1.125e-05
-1.34766e-16
1.125e-05
-2.70957e-17
1.125e-05
4.9688e-17
1.125e-05
1.50433e-16
1.125e-05
3.57735e-16
1.125e-05
8.19029e-16
1.125e-05
1.77533e-15
1.125e-05
3.47274e-15
1.125e-05
6.47578e-15
6.13816e-15
1.375e-05
-2.05563e-14
1.375e-05
-2.21716e-14
1.375e-05
-1.64142e-14
1.375e-05
-1.11099e-14
1.375e-05
-7.16863e-15
1.375e-05
-4.39367e-15
1.375e-05
-2.58191e-15
1.375e-05
-1.45042e-15
1.375e-05
-7.6979e-16
1.375e-05
-3.76703e-16
1.375e-05
-1.60074e-16
1.375e-05
-4.45301e-17
1.375e-05
2.61331e-17
1.375e-05
1.06573e-16
1.375e-05
2.73748e-16
1.375e-05
6.56378e-16
1.375e-05
1.46124e-15
1.375e-05
2.84605e-15
1.375e-05
5.19991e-15
4.80768e-15
1.625e-05
-1.92667e-14
1.625e-05
-2.09113e-14
1.625e-05
-1.58988e-14
1.625e-05
-1.09679e-14
1.625e-05
-7.18514e-15
1.625e-05
-4.45541e-15
1.625e-05
-2.63699e-15
1.625e-05
-1.48528e-15
1.625e-05
-7.86986e-16
1.625e-05
-3.84003e-16
1.625e-05
-1.66773e-16
1.625e-05
-6.12883e-17
1.625e-05
-1.48424e-17
1.625e-05
1.87012e-17
1.625e-05
9.83015e-17
1.625e-05
3.15343e-16
1.625e-05
8.18526e-16
1.625e-05
1.67003e-15
1.625e-05
3.12412e-15
2.73707e-15
1.875e-05
-1.65351e-14
1.875e-05
-1.79452e-14
1.875e-05
-1.39228e-14
1.875e-05
-9.75048e-15
1.875e-05
-6.47127e-15
1.875e-05
-4.05179e-15
1.875e-05
-2.40894e-15
1.875e-05
-1.3543e-15
1.875e-05
-7.10818e-16
1.875e-05
-3.41804e-16
1.875e-05
-1.50824e-16
1.875e-05
-7.36543e-17
1.875e-05
-6.7949e-17
1.875e-05
-1.03241e-16
1.875e-05
-1.47896e-16
1.875e-05
-1.60683e-16
1.875e-05
-6.47166e-17
1.875e-05
1.10682e-16
1.875e-05
5.15026e-16
1.67259e-16
2.125e-05
-1.2665e-14
2.125e-05
-1.36211e-14
2.125e-05
-1.07437e-14
2.125e-05
-7.61942e-15
2.125e-05
-5.12059e-15
2.125e-05
-3.23399e-15
2.125e-05
-1.92526e-15
2.125e-05
-1.07214e-15
2.125e-05
-5.48942e-16
2.125e-05
-2.53584e-16
2.125e-05
-1.12657e-16
2.125e-05
-7.88251e-17
2.125e-05
-1.25513e-16
2.125e-05
-2.42742e-16
2.125e-05
-4.31665e-16
2.125e-05
-7.07338e-16
2.125e-05
-1.07092e-15
2.125e-05
-1.63353e-15
2.125e-05
-2.34091e-15
-2.64144e-15
2.375e-05
-8.03323e-15
2.375e-05
-8.37953e-15
2.375e-05
-6.73317e-15
2.375e-05
-4.84607e-15
2.375e-05
-3.31481e-15
2.375e-05
-2.11667e-15
2.375e-05
-1.25552e-15
2.375e-05
-6.79876e-16
2.375e-05
-3.2485e-16
2.375e-05
-1.3186e-16
2.375e-05
-5.7371e-17
2.375e-05
-7.56891e-17
2.375e-05
-1.7912e-16
2.375e-05
-3.80097e-16
2.375e-05
-7.13711e-16
2.375e-05
-1.25126e-15
2.375e-05
-2.07174e-15
2.375e-05
-3.35796e-15
2.375e-05
-5.15891e-15
-5.42507e-15
2.625e-05
-3.06365e-15
2.625e-05
-2.72296e-15
2.625e-05
-2.34052e-15
2.625e-05
-1.77768e-15
2.625e-05
-1.29816e-15
2.625e-05
-8.60126e-16
2.625e-05
-4.99978e-16
2.625e-05
-2.38023e-16
2.625e-05
-7.3802e-17
2.625e-05
3.96921e-18
2.625e-05
6.08855e-18
2.625e-05
-6.5111e-17
2.625e-05
-2.21162e-16
2.625e-05
-4.95791e-16
2.625e-05
-9.54986e-16
2.625e-05
-1.72065e-15
2.625e-05
-2.94416e-15
2.625e-05
-4.87056e-15
2.625e-05
-7.67395e-15
-7.93349e-15
2.875e-05
1.79618e-15
2.875e-05
2.81154e-15
2.875e-05
1.94282e-15
2.875e-05
1.19986e-15
2.875e-05
6.54356e-16
2.875e-05
3.53506e-16
2.875e-05
2.26702e-16
2.875e-05
1.83968e-16
2.875e-05
1.63553e-16
2.875e-05
1.31282e-16
2.875e-05
6.66647e-17
2.875e-05
-4.96099e-17
2.875e-05
-2.45988e-16
2.875e-05
-5.73418e-16
2.875e-05
-1.1222e-15
2.875e-05
-2.05422e-15
2.875e-05
-3.583e-15
2.875e-05
-6.00662e-15
2.875e-05
-9.65357e-15
-9.94278e-15
3.125e-05
6.09796e-15
3.125e-05
7.68012e-15
3.125e-05
5.62269e-15
3.125e-05
3.70387e-15
3.125e-05
2.27388e-15
3.125e-05
1.34808e-15
3.125e-05
8.14894e-16
3.125e-05
5.20299e-16
3.125e-05
3.48971e-16
3.125e-05
2.2873e-16
3.125e-05
1.13623e-16
3.125e-05
-3.26315e-17
3.125e-05
-2.50533e-16
3.125e-05
-6.02009e-16
3.125e-05
-1.19219e-15
3.125e-05
-2.20837e-15
3.125e-05
-3.911e-15
3.125e-05
-6.64037e-15
3.125e-05
-1.09085e-14
-1.12663e-14
3.375e-05
9.42274e-15
3.375e-05
1.13661e-14
3.375e-05
8.24671e-15
3.375e-05
5.40314e-15
3.375e-05
3.3377e-15
3.375e-05
1.98356e-15
3.375e-05
1.18017e-15
3.375e-05
7.21778e-16
3.375e-05
4.54494e-16
3.375e-05
2.80911e-16
3.375e-05
1.38953e-16
3.375e-05
-1.74826e-17
3.375e-05
-2.34599e-16
3.375e-05
-5.77568e-16
3.375e-05
-1.15511e-15
3.375e-05
-2.16254e-15
3.375e-05
-3.88696e-15
3.375e-05
-6.69509e-15
3.375e-05
-1.13032e-14
-1.17658e-14
3.625e-05
1.14015e-14
3.625e-05
1.34171e-14
3.625e-05
9.46263e-15
3.625e-05
6.07064e-15
3.625e-05
3.71167e-15
3.625e-05
2.18406e-15
3.625e-05
1.28149e-15
3.625e-05
7.66637e-16
3.625e-05
4.68867e-16
3.625e-05
2.82005e-16
3.625e-05
1.39453e-16
3.625e-05
-6.46405e-18
3.625e-05
-2.00681e-16
3.625e-05
-5.03773e-16
3.625e-05
-1.01638e-15
3.625e-05
-1.92298e-15
3.625e-05
-3.51235e-15
3.625e-05
-6.15369e-15
3.625e-05
-1.07662e-14
-1.13597e-14
3.875e-05
1.17733e-14
3.875e-05
1.35143e-14
3.875e-05
9.08747e-15
3.875e-05
5.64491e-15
3.875e-05
3.38709e-15
3.875e-05
1.96077e-15
3.875e-05
1.13308e-15
3.875e-05
6.67113e-16
3.875e-05
4.00907e-16
3.875e-05
2.37589e-16
3.875e-05
1.17659e-16
3.875e-05
-2.40563e-19
3.875e-05
-1.5375e-16
3.875e-05
-3.92023e-16
3.875e-05
-7.97257e-16
3.875e-05
-1.52489e-15
3.875e-05
-2.83725e-15
3.875e-05
-5.07046e-15
3.875e-05
-9.31073e-15
-1.00415e-14
4.125e-05
1.04047e-14
4.125e-05
1.15429e-14
4.125e-05
7.21107e-15
4.125e-05
4.28388e-15
4.125e-05
2.50966e-15
4.125e-05
1.42067e-15
4.125e-05
8.07144e-16
4.125e-05
4.68855e-16
4.125e-05
2.78588e-16
4.125e-05
1.63898e-16
4.125e-05
8.15452e-17
4.125e-05
2.04803e-18
4.125e-05
-1.00879e-16
4.125e-05
-2.60703e-16
4.125e-05
-5.3406e-16
4.125e-05
-1.03295e-15
4.125e-05
-1.96469e-15
4.125e-05
-3.58772e-15
4.125e-05
-7.05649e-15
-7.89426e-15
4.375e-05
7.44575e-15
4.375e-05
7.79234e-15
4.375e-05
4.30575e-15
4.375e-05
2.4169e-15
4.375e-05
1.37843e-15
4.375e-05
7.57811e-16
4.375e-05
4.21954e-16
4.375e-05
2.42433e-16
4.375e-05
1.43152e-16
4.375e-05
8.42765e-17
4.375e-05
4.25191e-17
4.375e-05
2.14802e-18
4.375e-05
-5.09042e-17
4.375e-05
-1.33735e-16
4.375e-05
-2.75841e-16
4.375e-05
-5.39375e-16
4.375e-05
-1.05511e-15
4.375e-05
-1.95899e-15
4.375e-05
-4.29378e-15
-5.13783e-15
4.625e-05
3.29045e-15
4.625e-05
3.15491e-15
4.625e-05
1.40754e-15
4.625e-05
7.23993e-16
4.625e-05
4.05491e-16
4.625e-05
2.12628e-16
4.625e-05
1.15185e-16
4.625e-05
6.56395e-17
4.625e-05
3.88588e-17
4.625e-05
2.33e-17
4.625e-05
1.2393e-17
4.625e-05
1.46672e-18
4.625e-05
-1.38823e-17
4.625e-05
-3.8194e-17
4.625e-05
-7.93349e-17
4.625e-05
-1.56831e-16
4.625e-05
-3.19789e-16
4.625e-05
-5.91456e-16
4.625e-05
-1.57034e-15
-2.12669e-15
4.875e-05
4.875e-05
4.875e-05
4.875e-05
4.875e-05
4.875e-05
4.875e-05
4.875e-05
4.875e-05
4.875e-05
4.875e-05
4.875e-05
4.875e-05
4.875e-05
4.875e-05
4.875e-05
4.875e-05
4.875e-05
4.875e-05
)
;

boundaryField
{
    top
    {
        type            calculated;
        value           uniform 0;
    }
    bottom
    {
        type            calculated;
        value           uniform 0;
    }
    inlet
    {
        type            calculated;
        value           nonuniform List<scalar> 
20
(
-1.25e-06
-3.75e-06
-6.25e-06
-8.75e-06
-1.125e-05
-1.375e-05
-1.625e-05
-1.875e-05
-2.125e-05
-2.375e-05
-2.625e-05
-2.875e-05
-3.125e-05
-3.375e-05
-3.625e-05
-3.875e-05
-4.125e-05
-4.375e-05
-4.625e-05
-4.875e-05
)
;
    }
    outlet
    {
        type            calculated;
        value           nonuniform List<scalar> 
20
(
1.25e-06
3.75e-06
6.25e-06
8.75e-06
1.125e-05
1.375e-05
1.625e-05
1.875e-05
2.125e-05
2.375e-05
2.625e-05
2.875e-05
3.125e-05
3.375e-05
3.625e-05
3.875e-05
4.125e-05
4.375e-05
4.625e-05
4.875e-05
)
;
    }
    frontAndBack
    {
        type            empty;
        value           nonuniform List<scalar> 0();
    }
}


// ************************************************************************* //
