/*--------------------------------*- C++ -*----------------------------------*\
  =========                 |
  \\      /  F ield         | OpenFOAM: The Open Source CFD Toolbox
   \\    /   O peration     | Website:  https://openfoam.org
    \\  /    A nd           | Version:  9
     \\/     M anipulation  |
\*---------------------------------------------------------------------------*/
FoamFile
{
    format      ascii;
    class       volVectorField;
    location    "3.3";
    object      U;
}
// * * * * * * * * * * * * * * * * * * * * * * * * * * * * * * * * * * * * * //

dimensions      [0 1 -1 0 0 0 0];

internalField   nonuniform List<vector> 
400
(
(0.025 -1.92704e-11 0)
(0.025 -1.54139e-11 0)
(0.025 -6.47781e-12 0)
(0.025 -3.45256e-12 0)
(0.025 -1.90543e-12 0)
(0.025 -1.01048e-12 0)
(0.025 -5.45184e-13 0)
(0.025 -2.73061e-13 0)
(0.025 -1.23206e-13 0)
(0.025 -5.25632e-14 0)
(0.025 -1.89495e-14 0)
(0.025 2.80689e-15 0)
(0.025 2.54513e-14 0)
(0.025 6.39681e-14 0)
(0.025 1.52422e-13 0)
(0.025 4.04118e-13 0)
(0.025 1.00691e-12 0)
(0.025 2.39828e-12 0)
(0.025 8.45623e-12 0)
(0.025 9.91475e-12 0)
(0.075 -6.63532e-11 0)
(0.075 -5.89894e-11 0)
(0.075 -3.07954e-11 0)
(0.075 -1.76775e-11 0)
(0.075 -1.02104e-11 0)
(0.075 -5.67751e-12 0)
(0.075 -3.12207e-12 0)
(0.075 -1.65161e-12 0)
(0.075 -8.19204e-13 0)
(0.075 -3.71807e-13 0)
(0.075 -1.32281e-13 0)
(0.075 1.25439e-14 0)
(0.075 1.43195e-13 0)
(0.075 3.5605e-13 0)
(0.075 8.33351e-13 0)
(0.075 2.03738e-12 0)
(0.075 4.78841e-12 0)
(0.075 1.06527e-11 0)
(0.075 2.89364e-11 0)
(0.075 3.17649e-11 0)
(0.125 -1.20674e-10 0)
(0.125 -1.17192e-10 0)
(0.125 -7.07836e-11 0)
(0.125 -4.2828e-11 0)
(0.125 -2.55466e-11 0)
(0.125 -1.46903e-11 0)
(0.125 -8.2613e-12 0)
(0.125 -4.47704e-12 0)
(0.125 -2.29728e-12 0)
(0.125 -1.08156e-12 0)
(0.125 -4.08801e-13 0)
(0.125 -3.5873e-15 0)
(0.125 3.45162e-13 0)
(0.125 8.85161e-13 0)
(0.125 2.05029e-12 0)
(0.125 4.78867e-12 0)
(0.125 1.0788e-11 0)
(0.125 2.27624e-11 0)
(0.125 5.121e-11 0)
(0.125 5.26687e-11 0)
(0.175 -1.66042e-10 0)
(0.175 -1.69818e-10 0)
(0.175 -1.11978e-10 0)
(0.175 -7.05333e-11 0)
(0.175 -4.32081e-11 0)
(0.175 -2.54067e-11 0)
(0.175 -1.45051e-11 0)
(0.175 -7.97927e-12 0)
(0.175 -4.16466e-12 0)
(0.175 -1.99658e-12 0)
(0.175 -7.83856e-13 0)
(0.175 -6.57174e-14 0)
(0.175 5.19124e-13 0)
(0.175 1.38024e-12 0)
(0.175 3.19224e-12 0)
(0.175 7.29385e-12 0)
(0.175 1.59945e-11 0)
(0.175 3.24669e-11 0)
(0.175 6.55667e-11 0)
(0.175 6.46893e-11 0)
(0.225 -1.95795e-10 0)
(0.225 -2.06329e-10 0)
(0.225 -1.44267e-10 0)
(0.225 -9.39755e-11 0)
(0.225 -5.89255e-11 0)
(0.225 -3.53107e-11 0)
(0.225 -2.04316e-11 0)
(0.225 -1.13623e-11 0)
(0.225 -5.99175e-12 0)
(0.225 -2.90904e-12 0)
(0.225 -1.18393e-12 0)
(0.225 -1.88791e-13 0)
(0.225 5.64299e-13 0)
(0.225 1.60202e-12 0)
(0.225 3.74317e-12 0)
(0.225 8.49564e-12 0)
(0.225 1.83652e-11 0)
(0.225 3.61941e-11 0)
(0.225 6.86114e-11 0)
(0.225 6.58882e-11 0)
(0.275 -2.08017e-10 0)
(0.275 -2.23076e-10 0)
(0.275 -1.62675e-10 0)
(0.275 -1.08906e-10 0)
(0.275 -6.9672e-11 0)
(0.275 -4.24181e-11 0)
(0.275 -2.48177e-11 0)
(0.275 -1.39094e-11 0)
(0.275 -7.37828e-12 0)
(0.275 -3.60905e-12 0)
(0.275 -1.51451e-12 0)
(0.275 -3.56916e-13 0)
(0.275 4.24146e-13 0)
(0.275 1.39689e-12 0)
(0.275 3.39064e-12 0)
(0.275 7.83664e-12 0)
(0.275 1.704e-11 0)
(0.275 3.3063e-11 0)
(0.275 6.05292e-11 0)
(0.275 5.68289e-11 0)
(0.325 -2.03012e-10 0)
(0.325 -2.19802e-10 0)
(0.325 -1.65323e-10 0)
(0.325 -1.13126e-10 0)
(0.325 -7.36042e-11 0)
(0.325 -4.5406e-11 0)
(0.325 -2.67969e-11 0)
(0.325 -1.5089e-11 0)
(0.325 -8.01512e-12 0)
(0.325 -3.92628e-12 0)
(0.325 -1.68999e-12 0)
(0.325 -5.38155e-13 0)
(0.325 9.15542e-14 0)
(0.325 7.22506e-13 0)
(0.325 2.06082e-12 0)
(0.325 5.2444e-12 0)
(0.325 1.20929e-11 0)
(0.325 2.37098e-11 0)
(0.325 4.32084e-11 0)
(0.325 3.92806e-11 0)
(0.375 -1.82261e-10 0)
(0.375 -1.97994e-10 0)
(0.375 -1.52423e-10 0)
(0.375 -1.06103e-10 0)
(0.375 -7.00226e-11 0)
(0.375 -4.36655e-11 0)
(0.375 -2.59267e-11 0)
(0.375 -1.46109e-11 0)
(0.375 -7.72411e-12 0)
(0.375 -3.75583e-12 0)
(0.375 -1.649e-12 0)
(0.375 -6.92743e-13 0)
(0.375 -3.96283e-13 0)
(0.375 -3.61561e-13 0)
(0.375 -1.17585e-13 0)
(0.375 1.02113e-12 0)
(0.375 4.20366e-12 0)
(0.375 9.582e-12 0)
(0.375 1.91265e-11 0)
(0.375 1.54496e-11 0)
(0.425 -1.48395e-10 0)
(0.425 -1.60595e-10 0)
(0.425 -1.25874e-10 0)
(0.425 -8.88249e-11 0)
(0.425 -5.93583e-11 0)
(0.425 -3.73523e-11 0)
(0.425 -2.22476e-11 0)
(0.425 -1.24761e-11 0)
(0.425 -6.49515e-12 0)
(0.425 -3.08374e-12 0)
(0.425 -1.37151e-12 0)
(0.425 -7.85506e-13 0)
(0.425 -9.7029e-13 0)
(0.425 -1.71502e-12 0)
(0.425 -2.85933e-12 0)
(0.425 -4.26521e-12 0)
(0.425 -5.54896e-12 0)
(0.425 -7.43093e-12 0)
(0.425 -8.8809e-12 0)
(0.425 -1.21002e-11 0)
(0.475 -1.04872e-10 0)
(0.475 -1.11623e-10 0)
(0.475 -8.89125e-11 0)
(0.475 -6.35316e-11 0)
(0.475 -4.30415e-11 0)
(0.475 -2.73296e-11 0)
(0.475 -1.62652e-11 0)
(0.475 -8.97468e-12 0)
(0.475 -4.49022e-12 0)
(0.475 -1.99297e-12 0)
(0.475 -8.85881e-13 0)
(0.475 -7.95505e-13 0)
(0.475 -1.54591e-12 0)
(0.475 -3.14822e-12 0)
(0.475 -5.78601e-12 0)
(0.475 -9.89805e-12 0)
(0.475 -1.58935e-11 0)
(0.475 -2.52595e-11 0)
(0.475 -3.79102e-11 0)
(0.475 -4.07074e-11 0)
(0.525 -5.57623e-11 0)
(0.525 -5.5868e-11 0)
(0.525 -4.57319e-11 0)
(0.525 -3.3405e-11 0)
(0.525 -2.32734e-11 0)
(0.525 -1.50243e-11 0)
(0.525 -8.86338e-12 0)
(0.525 -4.63673e-12 0)
(0.525 -2.01626e-12 0)
(0.525 -6.50433e-13 0)
(0.525 -2.65678e-13 0)
(0.525 -7.21614e-13 0)
(0.525 -2.03979e-12 0)
(0.525 -4.45725e-12 0)
(0.525 -8.4913e-12 0)
(0.525 -1.51275e-11 0)
(0.525 -2.55379e-11 0)
(0.525 -4.18792e-11 0)
(0.525 -6.51719e-11 0)
(0.525 -6.77623e-11 0)
(0.575 -5.48276e-12 0)
(0.575 1.39895e-12 0)
(0.575 -1.13112e-12 0)
(0.575 -2.20868e-12 0)
(0.575 -2.73593e-12 0)
(0.575 -2.21323e-12 0)
(0.575 -1.16202e-12 0)
(0.575 -1.41405e-13 0)
(0.575 5.29015e-13 0)
(0.575 7.23239e-13 0)
(0.575 3.83735e-13 0)
(0.575 -5.82274e-13 0)
(0.575 -2.38356e-12 0)
(0.575 -5.45619e-12 0)
(0.575 -1.06015e-11 0)
(0.575 -1.92686e-11 0)
(0.575 -3.33137e-11 0)
(0.575 -5.54732e-11 0)
(0.575 -8.81481e-11 0)
(0.575 -9.08644e-11 0)
(0.625 4.14165e-11 0)
(0.625 5.46929e-11 0)
(0.625 3.9859e-11 0)
(0.625 2.61025e-11 0)
(0.625 1.57551e-11 0)
(0.625 9.23839e-12 0)
(0.625 5.66681e-12 0)
(0.625 3.80215e-12 0)
(0.625 2.73093e-12 0)
(0.625 1.89628e-12 0)
(0.625 9.46995e-13 0)
(0.625 -4.098e-13 0)
(0.625 -2.53283e-12 0)
(0.625 -6.00381e-12 0)
(0.625 -1.18253e-11 0)
(0.625 -2.1782e-11 0)
(0.625 -3.82868e-11 0)
(0.625 -6.45627e-11 0)
(0.625 -1.04702e-10 0)
(0.625 -1.07932e-10 0)
(0.675 8.05401e-11 0)
(0.675 9.86258e-11 0)
(0.675 7.23825e-11 0)
(0.675 4.78362e-11 0)
(0.675 2.96383e-11 0)
(0.675 1.76755e-11 0)
(0.675 1.06032e-11 0)
(0.675 6.58794e-12 0)
(0.675 4.23965e-12 0)
(0.675 2.674e-12 0)
(0.675 1.32434e-12 0)
(0.675 -2.40723e-13 0)
(0.675 -2.47151e-12 0)
(0.675 -6.02294e-12 0)
(0.675 -1.19923e-11 0)
(0.675 -2.23366e-11 0)
(0.675 -3.98483e-11 0)
(0.675 -6.81118e-11 0)
(0.675 -1.13186e-10 0)
(0.675 -1.17318e-10 0)
(0.725 1.07859e-10 0)
(0.725 1.28237e-10 0)
(0.725 9.22741e-11 0)
(0.725 6.0064e-11 0)
(0.725 3.70306e-11 0)
(0.725 2.19527e-11 0)
(0.725 1.29801e-11 0)
(0.725 7.83783e-12 0)
(0.725 4.84586e-12 0)
(0.725 2.94278e-12 0)
(0.725 1.45555e-12 0)
(0.725 -1.05262e-13 0)
(0.725 -2.21189e-12 0)
(0.725 -5.51152e-12 0)
(0.725 -1.10781e-11 0)
(0.725 -2.08552e-11 0)
(0.725 -3.77865e-11 0)
(0.725 -6.56285e-11 0)
(0.725 -1.12534e-10 0)
(0.725 -1.17899e-10 0)
(0.775 1.20128e-10 0)
(0.775 1.39474e-10 0)
(0.775 9.66181e-11 0)
(0.775 6.11859e-11 0)
(0.775 3.7124e-11 0)
(0.775 2.16994e-11 0)
(0.775 1.26404e-11 0)
(0.775 7.49373e-12 0)
(0.775 4.53254e-12 0)
(0.775 2.69908e-12 0)
(0.775 1.33598e-12 0)
(0.775 -1.918e-14 0)
(0.775 -1.79211e-12 0)
(0.775 -4.54552e-12 0)
(0.775 -9.21557e-12 0)
(0.775 -1.75402e-11 0)
(0.775 -3.23421e-11 0)
(0.775 -5.72502e-11 0)
(0.775 -1.02386e-10 0)
(0.775 -1.0919e-10 0)
(0.825 1.14881e-10 0)
(0.825 1.29575e-10 0)
(0.825 8.45245e-11 0)
(0.825 5.14533e-11 0)
(0.825 3.05157e-11 0)
(0.825 1.74775e-11 0)
(0.825 1.00118e-11 0)
(0.825 5.84771e-12 0)
(0.825 3.48733e-12 0)
(0.825 2.05485e-12 0)
(0.825 1.02015e-12 0)
(0.825 1.98408e-14 0)
(0.825 -1.27141e-12 0)
(0.825 -3.2726e-12 0)
(0.825 -6.68894e-12 0)
(0.825 -1.28789e-11 0)
(0.825 -2.42412e-11 0)
(0.825 -4.38454e-11 0)
(0.825 -8.31577e-11 0)
(0.825 -9.13524e-11 0)
(0.875 9.17495e-11 0)
(0.875 9.89755e-11 0)
(0.875 5.85758e-11 0)
(0.875 3.3798e-11 0)
(0.875 1.94989e-11 0)
(0.875 1.08726e-11 0)
(0.875 6.10916e-12 0)
(0.875 3.52309e-12 0)
(0.875 2.08185e-12 0)
(0.875 1.22146e-12 0)
(0.875 6.10354e-13 0)
(0.875 2.38955e-14 0)
(0.875 -7.37885e-13 0)
(0.875 -1.92274e-12 0)
(0.875 -3.95082e-12 0)
(0.875 -7.68712e-12 0)
(0.875 -1.48388e-11 0)
(0.875 -2.74075e-11 0)
(0.875 -5.67887e-11 0)
(0.875 -6.56447e-11 0)
(0.925 5.44697e-11 0)
(0.925 5.48461e-11 0)
(0.925 2.75348e-11 0)
(0.925 1.46141e-11 0)
(0.925 8.16066e-12 0)
(0.925 4.3653e-12 0)
(0.925 2.38617e-12 0)
(0.925 1.35994e-12 0)
(0.925 8.01838e-13 0)
(0.925 4.75281e-13 0)
(0.925 2.45052e-13 0)
(0.925 1.89579e-14 0)
(0.925 -2.86476e-13 0)
(0.925 -7.67286e-13 0)
(0.925 -1.5925e-12 0)
(0.925 -3.14309e-12 0)
(0.925 -6.29047e-12 0)
(0.925 -1.1796e-11 0)
(0.925 -2.83671e-11 0)
(0.925 -3.57925e-11 0)
(0.975 1.68262e-11 0)
(0.975 1.57287e-11 0)
(0.975 6.27509e-12 0)
(0.975 2.91664e-12 0)
(0.975 1.5661e-12 0)
(0.975 7.8048e-13 0)
(0.975 4.09176e-13 0)
(0.975 2.30775e-13 0)
(0.975 1.36173e-13 0)
(0.975 8.14797e-14 0)
(0.975 4.31159e-14 0)
(0.975 2.80824e-15 0)
(0.975 -5.83946e-14 0)
(0.975 -1.56983e-13 0)
(0.975 -3.17902e-13 0)
(0.975 -6.24674e-13 0)
(0.975 -1.31508e-12 0)
(0.975 -2.4688e-12 0)
(0.975 -7.38524e-12 0)
(0.975 -1.03258e-11 0)
)
;

boundaryField
{
    top
    {
        type            fixedValue;
        value           uniform (1 0 0);
    }
    bottom
    {
        type            fixedValue;
        value           uniform (0 0 0);
    }
    inlet
    {
        type            zeroGradient;
    }
    outlet
    {
        type            zeroGradient;
    }
    frontAndBack
    {
        type            empty;
    }
}


// ************************************************************************* //
