/*--------------------------------*- C++ -*----------------------------------*\
  =========                 |
  \\      /  F ield         | OpenFOAM: The Open Source CFD Toolbox
   \\    /   O peration     | Website:  https://openfoam.org
    \\  /    A nd           | Version:  9
     \\/     M anipulation  |
\*---------------------------------------------------------------------------*/
FoamFile
{
    format      ascii;
    class       volScalarField;
    location    "3.1";
    object      p;
}
// * * * * * * * * * * * * * * * * * * * * * * * * * * * * * * * * * * * * * //

dimensions      [0 2 -2 0 0 0 0];

internalField   nonuniform List<scalar> 
400
(
1.18137e-09
1.95789e-09
1.89322e-09
1.80081e-09
1.64906e-09
1.46935e-09
1.28213e-09
1.09166e-09
9.01107e-10
7.12072e-10
5.23698e-10
3.34775e-10
1.4487e-10
-4.59315e-11
-2.37433e-10
-4.3e-10
-6.18682e-10
-7.89901e-10
-1.00614e-09
-6.35647e-10
1.12039e-09
1.8653e-09
1.7949e-09
1.7419e-09
1.61334e-09
1.44781e-09
1.26968e-09
1.0847e-09
8.97373e-10
7.10201e-10
5.22902e-10
3.3467e-10
1.45401e-10
-4.44423e-11
-2.33951e-10
-4.22479e-10
-6.02714e-10
-7.53222e-10
-9.82185e-10
-6.19356e-10
1.13279e-09
1.87346e-09
1.73998e-09
1.70401e-09
1.58787e-09
1.43098e-09
1.2593e-09
1.07855e-09
8.93819e-10
7.08189e-10
5.21829e-10
3.34254e-10
1.45587e-10
-4.34619e-11
-2.31548e-10
-4.17782e-10
-5.94587e-10
-7.35443e-10
-1.01381e-09
-6.42146e-10
1.17628e-09
1.95512e-09
1.72842e-09
1.68802e-09
1.57411e-09
1.42006e-09
1.25177e-09
1.07362e-09
8.90622e-10
7.06097e-10
5.20486e-10
3.33481e-10
1.45306e-10
-4.32379e-11
-2.30696e-10
-4.166e-10
-5.94634e-10
-7.36731e-10
-1.07777e-09
-6.77412e-10
1.22392e-09
2.06824e-09
1.73929e-09
1.68437e-09
1.56737e-09
1.41283e-09
1.24603e-09
1.06939e-09
8.87553e-10
7.03876e-10
5.18912e-10
3.32414e-10
1.44617e-10
-4.36704e-11
-2.31082e-10
-4.17845e-10
-5.99586e-10
-7.47211e-10
-1.14932e-09
-7.10925e-10
1.2679e-09
2.19049e-09
1.76129e-09
1.68742e-09
1.56484e-09
1.40783e-09
1.24129e-09
1.06551e-09
8.84507e-10
7.01537e-10
5.17159e-10
3.31111e-10
1.43597e-10
-4.46092e-11
-2.32316e-10
-4.20513e-10
-6.06875e-10
-7.6091e-10
-1.21495e-09
-7.38192e-10
1.3067e-09
2.30947e-09
1.78796e-09
1.69371e-09
1.56457e-09
1.40406e-09
1.23706e-09
1.06177e-09
8.81442e-10
6.99112e-10
5.15282e-10
3.29644e-10
1.42345e-10
-4.5876e-11
-2.34016e-10
-4.23717e-10
-6.14644e-10
-7.74206e-10
-1.26777e-09
-7.58425e-10
1.33878e-09
2.41505e-09
1.81407e-09
1.7002e-09
1.56478e-09
1.40063e-09
1.2329e-09
1.05798e-09
8.78313e-10
6.96625e-10
5.13338e-10
3.28093e-10
1.40987e-10
-4.72496e-11
-2.35752e-10
-4.26605e-10
-6.2121e-10
-7.84383e-10
-1.30302e-09
-7.70868e-10
1.36317e-09
2.49932e-09
1.8354e-09
1.70454e-09
1.56409e-09
1.39686e-09
1.22853e-09
1.05406e-09
8.75113e-10
6.94112e-10
5.11391e-10
3.26552e-10
1.39668e-10
-4.84897e-11
-2.37105e-10
-4.2842e-10
-6.25215e-10
-7.89446e-10
-1.31799e-09
-7.75314e-10
1.37915e-09
2.55651e-09
1.84903e-09
1.70523e-09
1.56168e-09
1.39241e-09
1.22386e-09
1.05e-09
8.71893e-10
6.9164e-10
5.09514e-10
3.25116e-10
1.38528e-10
-4.93812e-11
-2.37726e-10
-4.28604e-10
-6.25726e-10
-7.88247e-10
-1.31167e-09
-7.71818e-10
1.38619e-09
2.58288e-09
1.85335e-09
1.70169e-09
1.55733e-09
1.38734e-09
1.21902e-09
1.04597e-09
8.68772e-10
6.89299e-10
5.07786e-10
3.23868e-10
1.37674e-10
-4.97699e-11
-2.37397e-10
-4.26855e-10
-6.223e-10
-7.80423e-10
-1.28455e-09
-7.60718e-10
1.38383e-09
2.57657e-09
1.84802e-09
1.69419e-09
1.55138e-09
1.38202e-09
1.21435e-09
1.04221e-09
8.65925e-10
6.87204e-10
5.06284e-10
3.2287e-10
1.37169e-10
-4.95922e-11
-2.3606e-10
-4.23168e-10
-6.15001e-10
-7.66348e-10
-1.2384e-09
-7.42534e-10
1.37165e-09
2.53779e-09
1.83398e-09
1.68384e-09
1.54467e-09
1.37708e-09
1.21033e-09
1.03904e-09
8.63558e-10
6.85475e-10
5.05074e-10
3.22151e-10
1.37013e-10
-4.88907e-11
-2.33841e-10
-4.1785e-10
-6.04409e-10
-7.47103e-10
-1.17612e-09
-7.17982e-10
1.34951e-09
2.46907e-09
1.81361e-09
1.67253e-09
1.53846e-09
1.37335e-09
1.20748e-09
1.03682e-09
8.61874e-10
6.84224e-10
5.04203e-10
3.21709e-10
1.37145e-10
-4.78177e-11
-2.31058e-10
-4.11522e-10
-5.91614e-10
-7.24454e-10
-1.10178e-09
-6.8805e-10
1.31747e-09
2.37561e-09
1.79079e-09
1.6628e-09
1.53427e-09
1.3717e-09
1.20633e-09
1.03582e-09
8.61034e-10
6.8353e-10
5.03694e-10
3.21506e-10
1.37449e-10
-4.66201e-11
-2.28185e-10
-4.0508e-10
-5.78173e-10
-7.00837e-10
-1.02056e-09
-6.54024e-10
1.27643e-09
2.26582e-09
1.77061e-09
1.65764e-09
1.53368e-09
1.37291e-09
1.20723e-09
1.03623e-09
8.61119e-10
6.83421e-10
5.0353e-10
3.21474e-10
1.37769e-10
-4.56076e-11
-2.25804e-10
-3.99603e-10
-5.65996e-10
-6.7921e-10
-9.38752e-10
-6.17588e-10
1.22707e-09
2.15127e-09
1.75966e-09
1.66003e-09
1.53813e-09
1.37753e-09
1.21037e-09
1.03807e-09
8.62109e-10
6.83861e-10
5.03665e-10
3.21525e-10
1.37929e-10
-4.51181e-11
-2.24537e-10
-3.96267e-10
-5.57252e-10
-6.63148e-10
-8.63777e-10
-5.80556e-10
1.17659e-09
2.05459e-09
1.76906e-09
1.6747e-09
1.54948e-09
1.38625e-09
1.2159e-09
1.04136e-09
8.63974e-10
6.84814e-10
5.04045e-10
3.21559e-10
1.37716e-10
-4.556e-11
-2.25127e-10
-3.96512e-10
-5.54903e-10
-6.58393e-10
-8.07935e-10
-5.4789e-10
1.14799e-09
2.01813e-09
1.81938e-09
1.70948e-09
1.57101e-09
1.40023e-09
1.22423e-09
1.0462e-09
8.66759e-10
6.86309e-10
5.0468e-10
3.21525e-10
1.36981e-10
-4.7278e-11
-2.28334e-10
-4.0204e-10
-5.62868e-10
-6.74143e-10
-7.92936e-10
-5.34961e-10
1.18353e-09
2.07912e-09
1.91077e-09
1.76307e-09
1.60109e-09
1.418e-09
1.23435e-09
1.05199e-09
8.70088e-10
6.88142e-10
5.05476e-10
3.21424e-10
1.35837e-10
-4.99941e-11
-2.33681e-10
-4.12087e-10
-5.80683e-10
-7.10009e-10
-8.32018e-10
-5.64748e-10
)
;

boundaryField
{
    top
    {
        type            zeroGradient;
    }
    bottom
    {
        type            zeroGradient;
    }
    inlet
    {
        type            fixedValue;
        value           uniform 0;
    }
    outlet
    {
        type            fixedValue;
        value           uniform 0;
    }
    frontAndBack
    {
        type            empty;
    }
}


// ************************************************************************* //
