/*--------------------------------*- C++ -*----------------------------------*\
  =========                 |
  \\      /  F ield         | OpenFOAM: The Open Source CFD Toolbox
   \\    /   O peration     | Website:  https://openfoam.org
    \\  /    A nd           | Version:  9
     \\/     M anipulation  |
\*---------------------------------------------------------------------------*/
FoamFile
{
    format      ascii;
    class       surfaceScalarField;
    location    "3.1";
    object      phi;
}
// * * * * * * * * * * * * * * * * * * * * * * * * * * * * * * * * * * * * * //

dimensions      [0 3 -1 0 0 0 0];

internalField   nonuniform List<scalar> 
760
(
1.25e-06
-7.23552e-15
1.25e-06
-6.02134e-15
1.25e-06
-2.86827e-15
1.25e-06
-1.63093e-15
1.25e-06
-9.362e-16
1.25e-06
-5.14519e-16
1.25e-06
-2.81973e-16
1.25e-06
-1.47664e-16
1.25e-06
-7.20956e-17
1.25e-06
-3.28371e-17
1.25e-06
-1.23318e-17
1.25e-06
2.69716e-19
1.25e-06
1.18665e-17
1.25e-06
3.06691e-17
1.25e-06
7.26659e-17
1.25e-06
1.8349e-16
1.25e-06
4.37559e-16
1.25e-06
9.78597e-16
1.25e-06
3.08196e-15
3.55755e-15
3.75e-06
-1.7418e-14
3.75e-06
-1.63221e-14
3.75e-06
-9.33213e-15
3.75e-06
-5.55405e-15
3.75e-06
-3.27762e-15
3.75e-06
-1.86499e-15
3.75e-06
-1.04177e-15
3.75e-06
-5.60921e-16
3.75e-06
-2.85421e-16
3.75e-06
-1.33218e-16
3.75e-06
-4.96824e-17
3.75e-06
5.97949e-19
3.75e-06
4.42629e-17
3.75e-06
1.1279e-16
3.75e-06
2.62535e-16
3.75e-06
6.23569e-16
3.75e-06
1.42919e-15
3.75e-06
3.0688e-15
3.75e-06
7.47918e-15
7.90417e-15
6.24999e-06
-2.6492e-14
6.24999e-06
-2.65784e-14
6.24999e-06
-1.68953e-14
6.24999e-06
-1.04624e-14
6.24999e-06
-6.33997e-15
6.24999e-06
-3.69492e-15
6.24999e-06
-2.09698e-15
6.24999e-06
-1.14701e-15
6.24999e-06
-5.9483e-16
6.24999e-06
-2.8305e-16
6.24999e-06
-1.0937e-16
6.24999e-06
-6.05698e-18
6.24999e-06
7.9699e-17
6.24999e-06
2.08636e-16
6.24999e-06
4.8322e-16
6.24999e-06
1.1155e-15
6.24999e-06
2.47691e-15
6.24999e-06
5.12341e-15
6.24999e-06
1.08523e-14
1.08604e-14
8.74999e-06
-3.32864e-14
8.74999e-06
-3.46691e-14
8.74999e-06
-2.35982e-14
8.74999e-06
-1.5142e-14
8.74999e-06
-9.39728e-15
8.74999e-06
-5.58555e-15
8.74999e-06
-3.21358e-15
8.74999e-06
-1.77873e-15
8.74999e-06
-9.33627e-16
8.74999e-06
-4.50651e-16
8.74999e-06
-1.8054e-16
8.74999e-06
-2.30816e-17
8.74999e-06
9.99396e-17
8.74999e-06
2.7475e-16
8.74999e-06
6.39135e-16
8.74999e-06
1.45565e-15
8.74999e-06
3.16955e-15
8.74999e-06
6.33791e-15
8.74999e-06
1.23948e-14
1.2021e-14
1.125e-05
-3.71074e-14
1.125e-05
-3.9512e-14
1.125e-05
-2.82315e-14
1.125e-05
-1.86563e-14
1.125e-05
-1.18242e-14
1.125e-05
-7.14596e-15
1.125e-05
-4.15962e-15
1.125e-05
-2.32279e-15
1.125e-05
-1.22855e-15
1.125e-05
-5.9868e-16
1.125e-05
-2.47632e-16
1.125e-05
-4.97857e-17
1.125e-05
9.1311e-17
1.125e-05
2.76424e-16
1.125e-05
6.57333e-16
1.125e-05
1.50492e-15
1.125e-05
3.26202e-15
1.125e-05
6.38088e-15
1.125e-05
1.18987e-14
1.12784e-14
1.375e-05
-3.77705e-14
1.375e-05
-4.07386e-14
1.375e-05
-3.01597e-14
1.375e-05
-2.04135e-14
1.375e-05
-1.31718e-14
1.375e-05
-8.07303e-15
1.375e-05
-4.74407e-15
1.375e-05
-2.66504e-15
1.375e-05
-1.41445e-15
1.375e-05
-6.92185e-16
1.375e-05
-2.94134e-16
1.375e-05
-8.18222e-17
1.375e-05
4.80317e-17
1.375e-05
1.95842e-16
1.375e-05
5.03014e-16
1.375e-05
1.20606e-15
1.375e-05
2.68491e-15
1.375e-05
5.22939e-15
1.375e-05
9.55444e-15
8.83375e-15
1.625e-05
-3.54011e-14
1.625e-05
-3.84229e-14
1.625e-05
-2.92129e-14
1.625e-05
-2.01526e-14
1.625e-05
-1.32021e-14
1.625e-05
-8.18648e-15
1.625e-05
-4.84527e-15
1.625e-05
-2.7291e-15
1.625e-05
-1.44605e-15
1.625e-05
-7.05592e-16
1.625e-05
-3.0645e-16
1.625e-05
-1.12617e-16
1.625e-05
-2.72578e-17
1.625e-05
3.43885e-17
1.625e-05
1.80652e-16
1.625e-05
5.79434e-16
1.625e-05
1.50398e-15
1.625e-05
3.06856e-15
1.625e-05
5.74035e-15
5.02917e-15
1.875e-05
-3.03821e-14
1.875e-05
-3.29729e-14
1.875e-05
-2.5582e-14
1.875e-05
-1.79157e-14
1.875e-05
-1.18904e-14
1.875e-05
-7.44485e-15
1.875e-05
-4.42626e-15
1.875e-05
-2.48845e-15
1.875e-05
-1.3061e-15
1.875e-05
-6.28053e-16
1.875e-05
-2.77141e-16
1.875e-05
-1.35331e-16
1.875e-05
-1.24841e-16
1.875e-05
-1.89676e-16
1.875e-05
-2.7172e-16
1.875e-05
-2.95224e-16
1.875e-05
-1.18908e-16
1.875e-05
2.03366e-16
1.875e-05
9.46327e-16
3.07329e-16
2.125e-05
-2.3271e-14
2.125e-05
-2.50277e-14
2.125e-05
-1.97408e-14
2.125e-05
-1.40001e-14
2.125e-05
-9.40868e-15
2.125e-05
-5.9422e-15
2.125e-05
-3.53752e-15
2.125e-05
-1.97e-15
2.125e-05
-1.00866e-15
2.125e-05
-4.65957e-16
2.125e-05
-2.07004e-16
2.125e-05
-1.44831e-16
2.125e-05
-2.3061e-16
2.125e-05
-4.45999e-16
2.125e-05
-7.93123e-16
2.125e-05
-1.29966e-15
2.125e-05
-1.96771e-15
2.125e-05
-3.00149e-15
2.125e-05
-4.30125e-15
-4.85343e-15
2.375e-05
-1.47604e-14
2.375e-05
-1.53967e-14
2.375e-05
-1.23717e-14
2.375e-05
-8.90426e-15
2.375e-05
-6.0907e-15
2.375e-05
-3.88922e-15
2.375e-05
-2.30692e-15
2.375e-05
-1.24924e-15
2.375e-05
-5.96905e-16
2.375e-05
-2.42297e-16
2.375e-05
-1.05423e-16
2.375e-05
-1.39081e-16
2.375e-05
-3.29114e-16
2.375e-05
-6.98382e-16
2.375e-05
-1.31136e-15
2.375e-05
-2.29908e-15
2.375e-05
-3.80665e-15
2.375e-05
-6.17e-15
2.375e-05
-9.4791e-15
-9.96813e-15
2.625e-05
-5.62923e-15
2.625e-05
-5.00322e-15
2.625e-05
-4.3005e-15
2.625e-05
-3.26634e-15
2.625e-05
-2.38527e-15
2.625e-05
-1.58041e-15
2.625e-05
-9.18668e-16
2.625e-05
-4.37363e-16
2.625e-05
-1.35624e-16
2.625e-05
7.28211e-18
2.625e-05
1.11581e-17
2.625e-05
-1.19649e-16
2.625e-05
-4.06367e-16
2.625e-05
-9.10947e-16
2.625e-05
-1.7547e-15
2.625e-05
-3.16153e-15
2.625e-05
-5.40966e-15
2.625e-05
-8.94929e-15
2.625e-05
-1.41003e-14
-1.45772e-14
2.875e-05
3.30035e-15
2.875e-05
5.16601e-15
2.875e-05
3.56979e-15
2.875e-05
2.20467e-15
2.875e-05
1.20233e-15
2.875e-05
6.49543e-16
2.875e-05
4.16543e-16
2.875e-05
3.38025e-16
2.875e-05
3.00498e-16
2.875e-05
2.41194e-16
2.875e-05
1.2247e-16
2.875e-05
-9.11764e-17
2.875e-05
-4.51977e-16
2.875e-05
-1.05358e-15
2.875e-05
-2.06194e-15
2.875e-05
-3.77446e-15
2.875e-05
-6.58348e-15
2.875e-05
-1.10367e-14
2.875e-05
-1.77377e-14
-1.82691e-14
3.125e-05
1.12045e-14
3.125e-05
1.41116e-14
3.125e-05
1.03313e-14
3.125e-05
6.80558e-15
3.125e-05
4.17808e-15
3.125e-05
2.47699e-15
3.125e-05
1.49731e-15
3.125e-05
9.56014e-16
3.125e-05
6.41192e-16
3.125e-05
4.20257e-16
3.125e-05
2.0875e-16
3.125e-05
-5.99744e-17
3.125e-05
-4.60335e-16
3.125e-05
-1.10614e-15
3.125e-05
-2.19053e-15
3.125e-05
-4.05771e-15
3.125e-05
-7.18615e-15
3.125e-05
-1.22012e-14
3.125e-05
-2.00435e-14
-2.0701e-14
3.375e-05
1.73136e-14
3.375e-05
2.08843e-14
3.375e-05
1.51527e-14
3.375e-05
9.92786e-15
3.375e-05
6.13277e-15
3.375e-05
3.64465e-15
3.375e-05
2.16847e-15
3.375e-05
1.32622e-15
3.375e-05
8.35089e-16
3.375e-05
5.16145e-16
3.375e-05
2.55297e-16
3.375e-05
-3.2147e-17
3.375e-05
-4.31053e-16
3.375e-05
-1.06124e-15
3.375e-05
-2.12241e-15
3.375e-05
-3.97348e-15
3.375e-05
-7.14198e-15
3.375e-05
-1.23017e-14
3.375e-05
-2.07687e-14
-2.16187e-14
3.625e-05
2.09493e-14
3.625e-05
2.46529e-14
3.625e-05
1.73868e-14
3.625e-05
1.11543e-14
3.625e-05
6.81992e-15
3.625e-05
4.01305e-15
3.625e-05
2.35464e-15
3.625e-05
1.40863e-15
3.625e-05
8.6151e-16
3.625e-05
5.18148e-16
3.625e-05
2.56212e-16
3.625e-05
-1.18866e-17
3.625e-05
-3.68738e-16
3.625e-05
-9.25651e-16
3.625e-05
-1.86751e-15
3.625e-05
-3.53331e-15
3.625e-05
-6.45366e-15
3.625e-05
-1.13069e-14
3.625e-05
-1.97821e-14
-2.08726e-14
3.875e-05
2.16325e-14
3.875e-05
2.48314e-14
3.875e-05
1.66975e-14
3.875e-05
1.03721e-14
3.875e-05
6.22351e-15
3.875e-05
3.60277e-15
3.875e-05
2.08195e-15
3.875e-05
1.22577e-15
3.875e-05
7.36629e-16
3.875e-05
4.36555e-16
3.875e-05
2.16192e-16
3.875e-05
-4.53066e-19
3.875e-05
-2.82515e-16
3.875e-05
-7.20316e-16
3.875e-05
-1.46489e-15
3.875e-05
-2.80185e-15
3.875e-05
-5.21323e-15
3.875e-05
-9.31656e-15
3.875e-05
-1.71077e-14
-1.84505e-14
4.125e-05
1.91179e-14
4.125e-05
2.12092e-14
4.125e-05
1.32498e-14
4.125e-05
7.87128e-15
4.125e-05
4.61132e-15
4.125e-05
2.61038e-15
4.125e-05
1.48307e-15
4.125e-05
8.61479e-16
4.125e-05
5.11861e-16
4.125e-05
3.01147e-16
4.125e-05
1.49851e-16
4.125e-05
3.75891e-18
4.125e-05
-1.85361e-16
4.125e-05
-4.79035e-16
4.125e-05
-9.81286e-16
4.125e-05
-1.89795e-15
4.125e-05
-3.60997e-15
4.125e-05
-6.59215e-15
4.125e-05
-1.29657e-14
-1.45051e-14
4.375e-05
1.3681e-14
4.375e-05
1.43178e-14
4.375e-05
7.91151e-15
4.375e-05
4.44085e-15
4.375e-05
2.53275e-15
4.375e-05
1.39243e-15
4.375e-05
7.75329e-16
4.375e-05
4.45459e-16
4.375e-05
2.63002e-16
4.375e-05
1.54836e-16
4.375e-05
7.81269e-17
4.375e-05
3.9382e-18
4.375e-05
-9.35293e-17
4.375e-05
-2.45719e-16
4.375e-05
-5.06824e-16
4.375e-05
-9.91054e-16
4.375e-05
-1.93868e-15
4.375e-05
-3.5995e-15
4.375e-05
-7.88948e-15
-9.44035e-15
4.625e-05
6.04595e-15
4.625e-05
5.79686e-15
4.625e-05
2.58631e-15
4.625e-05
1.33029e-15
4.625e-05
7.4504e-16
4.625e-05
3.907e-16
4.625e-05
2.11648e-16
4.625e-05
1.20616e-16
4.625e-05
7.13782e-17
4.625e-05
4.27999e-17
4.625e-05
2.27777e-17
4.625e-05
2.70257e-18
4.625e-05
-2.55105e-17
4.625e-05
-7.01564e-17
4.625e-05
-1.45765e-16
4.625e-05
-2.88166e-16
4.625e-05
-5.87576e-16
4.625e-05
-1.08681e-15
4.625e-05
-2.88536e-15
-3.90762e-15
4.875e-05
4.875e-05
4.875e-05
4.875e-05
4.875e-05
4.875e-05
4.875e-05
4.875e-05
4.875e-05
4.875e-05
4.875e-05
4.875e-05
4.875e-05
4.875e-05
4.875e-05
4.875e-05
4.875e-05
4.875e-05
4.875e-05
)
;

boundaryField
{
    top
    {
        type            calculated;
        value           uniform 0;
    }
    bottom
    {
        type            calculated;
        value           uniform 0;
    }
    inlet
    {
        type            calculated;
        value           nonuniform List<scalar> 
20
(
-1.25e-06
-3.75e-06
-6.24999e-06
-8.74999e-06
-1.125e-05
-1.375e-05
-1.625e-05
-1.875e-05
-2.125e-05
-2.375e-05
-2.625e-05
-2.875e-05
-3.125e-05
-3.375e-05
-3.625e-05
-3.875e-05
-4.125e-05
-4.375e-05
-4.625e-05
-4.875e-05
)
;
    }
    outlet
    {
        type            calculated;
        value           nonuniform List<scalar> 
20
(
1.25e-06
3.75e-06
6.24999e-06
8.74999e-06
1.125e-05
1.375e-05
1.625e-05
1.875e-05
2.125e-05
2.375e-05
2.625e-05
2.875e-05
3.125e-05
3.375e-05
3.625e-05
3.875e-05
4.125e-05
4.375e-05
4.625e-05
4.875e-05
)
;
    }
    frontAndBack
    {
        type            empty;
        value           nonuniform List<scalar> 0();
    }
}


// ************************************************************************* //
