/*--------------------------------*- C++ -*----------------------------------*\
  =========                 |
  \\      /  F ield         | OpenFOAM: The Open Source CFD Toolbox
   \\    /   O peration     | Website:  https://openfoam.org
    \\  /    A nd           | Version:  9
     \\/     M anipulation  |
\*---------------------------------------------------------------------------*/
FoamFile
{
    format      ascii;
    class       volVectorField;
    location    "3.1";
    object      U;
}
// * * * * * * * * * * * * * * * * * * * * * * * * * * * * * * * * * * * * * //

dimensions      [0 1 -1 0 0 0 0];

internalField   nonuniform List<vector> 
400
(
(0.025 -3.54066e-11 0)
(0.025 -2.83189e-11 0)
(0.025 -1.18977e-11 0)
(0.025 -6.33953e-12 0)
(0.025 -3.49766e-12 0)
(0.025 -1.85418e-12 0)
(0.025 -1.00021e-12 0)
(0.025 -5.00977e-13 0)
(0.025 -2.26089e-13 0)
(0.025 -9.65084e-14 0)
(0.025 -3.48168e-14 0)
(0.025 5.1522e-15 0)
(0.025 4.67376e-14 0)
(0.025 1.17417e-13 0)
(0.025 2.79611e-13 0)
(0.025 7.4124e-13 0)
(0.025 1.84731e-12 0)
(0.025 4.40235e-12 0)
(0.025 1.55356e-11 0)
(0.025 1.82167e-11 0)
(0.0749999 -1.21917e-10 0)
(0.0749999 -1.08385e-10 0)
(0.0749999 -5.65788e-11 0)
(0.0749999 -3.24762e-11 0)
(0.0749999 -1.8757e-11 0)
(0.0749999 -1.04291e-11 0)
(0.0749999 -5.73484e-12 0)
(0.0749999 -3.03388e-12 0)
(0.0749999 -1.50493e-12 0)
(0.0749999 -6.83114e-13 0)
(0.0749999 -2.43076e-13 0)
(0.0749999 2.30448e-14 0)
(0.0749999 2.63105e-13 0)
(0.0749999 6.54111e-13 0)
(0.0749999 1.53074e-12 0)
(0.0749999 3.74208e-12 0)
(0.0749999 8.79512e-12 0)
(0.0749999 1.95687e-11 0)
(0.0749999 5.3166e-11 0)
(0.0749999 5.83646e-11 0)
(0.125 -2.21729e-10 0)
(0.125 -2.1533e-10 0)
(0.125 -1.30059e-10 0)
(0.125 -7.86927e-11 0)
(0.125 -4.69397e-11 0)
(0.125 -2.69922e-11 0)
(0.125 -1.51795e-11 0)
(0.125 -8.22625e-12 0)
(0.125 -4.22117e-12 0)
(0.125 -1.98737e-12 0)
(0.125 -7.51191e-13 0)
(0.125 -6.59063e-15 0)
(0.125 6.34272e-13 0)
(0.125 1.62649e-12 0)
(0.125 3.76733e-12 0)
(0.125 8.79878e-12 0)
(0.125 1.98219e-11 0)
(0.125 4.18239e-11 0)
(0.125 9.40944e-11 0)
(0.125 9.67746e-11 0)
(0.175 -3.0509e-10 0)
(0.175 -3.12028e-10 0)
(0.175 -2.05751e-10 0)
(0.175 -1.296e-10 0)
(0.175 -7.93917e-11 0)
(0.175 -4.6683e-11 0)
(0.175 -2.66522e-11 0)
(0.175 -1.46615e-11 0)
(0.175 -7.65244e-12 0)
(0.175 -3.66874e-12 0)
(0.175 -1.44033e-12 0)
(0.175 -1.20747e-13 0)
(0.175 9.53948e-13 0)
(0.175 2.53621e-12 0)
(0.175 5.8657e-12 0)
(0.175 1.34021e-11 0)
(0.175 2.93889e-11 0)
(0.175 5.96558e-11 0)
(0.175 1.20474e-10 0)
(0.175 1.18862e-10 0)
(0.225 -3.59759e-10 0)
(0.225 -3.79114e-10 0)
(0.225 -2.6508e-10 0)
(0.225 -1.72673e-10 0)
(0.225 -1.08271e-10 0)
(0.225 -6.48807e-11 0)
(0.225 -3.75416e-11 0)
(0.225 -2.08776e-11 0)
(0.225 -1.10096e-11 0)
(0.225 -5.34534e-12 0)
(0.225 -2.17545e-12 0)
(0.225 -3.46884e-13 0)
(0.225 1.03698e-12 0)
(0.225 2.94372e-12 0)
(0.225 6.87798e-12 0)
(0.225 1.56102e-11 0)
(0.225 3.37447e-11 0)
(0.225 6.65039e-11 0)
(0.225 1.26068e-10 0)
(0.225 1.21065e-10 0)
(0.275 -3.82216e-10 0)
(0.275 -4.09885e-10 0)
(0.275 -2.98903e-10 0)
(0.275 -2.00107e-10 0)
(0.275 -1.28017e-10 0)
(0.275 -7.794e-11 0)
(0.275 -4.56007e-11 0)
(0.275 -2.55576e-11 0)
(0.275 -1.35572e-11 0)
(0.275 -6.63156e-12 0)
(0.275 -2.7829e-12 0)
(0.275 -6.55812e-13 0)
(0.275 7.79478e-13 0)
(0.275 2.56687e-12 0)
(0.275 6.23028e-12 0)
(0.275 1.43994e-11 0)
(0.275 3.13096e-11 0)
(0.275 6.07506e-11 0)
(0.275 1.11218e-10 0)
(0.275 1.04419e-10 0)
(0.325 -3.73019e-10 0)
(0.325 -4.03869e-10 0)
(0.325 -3.03768e-10 0)
(0.325 -2.0786e-10 0)
(0.325 -1.35242e-10 0)
(0.325 -8.34301e-11 0)
(0.325 -4.92374e-11 0)
(0.325 -2.77251e-11 0)
(0.325 -1.47273e-11 0)
(0.325 -7.21444e-12 0)
(0.325 -3.10537e-12 0)
(0.325 -9.88849e-13 0)
(0.325 1.68367e-13 0)
(0.325 1.3278e-12 0)
(0.325 3.78687e-12 0)
(0.325 9.63635e-12 0)
(0.325 2.22197e-11 0)
(0.325 4.35649e-11 0)
(0.325 7.93921e-11 0)
(0.325 7.21752e-11 0)
(0.375 -3.34891e-10 0)
(0.375 -3.63799e-10 0)
(0.375 -2.80065e-10 0)
(0.375 -1.94956e-10 0)
(0.375 -1.28661e-10 0)
(0.375 -8.02319e-11 0)
(0.375 -4.76385e-11 0)
(0.375 -2.68467e-11 0)
(0.375 -1.41927e-11 0)
(0.375 -6.90121e-12 0)
(0.375 -3.03006e-12 0)
(0.375 -1.27287e-12 0)
(0.375 -7.28023e-13 0)
(0.375 -6.64092e-13 0)
(0.375 -2.15749e-13 0)
(0.375 1.87643e-12 0)
(0.375 7.72394e-12 0)
(0.375 1.76062e-11 0)
(0.375 3.51435e-11 0)
(0.375 2.83876e-11 0)
(0.425 -2.72665e-10 0)
(0.425 -2.95081e-10 0)
(0.425 -2.31284e-10 0)
(0.425 -1.63209e-10 0)
(0.425 -1.09066e-10 0)
(0.425 -6.86319e-11 0)
(0.425 -4.08783e-11 0)
(0.425 -2.2924e-11 0)
(0.425 -1.19346e-11 0)
(0.425 -5.6663e-12 0)
(0.425 -2.52014e-12 0)
(0.425 -1.44327e-12 0)
(0.425 -1.78273e-12 0)
(0.425 -3.15101e-12 0)
(0.425 -5.25351e-12 0)
(0.425 -7.83678e-12 0)
(0.425 -1.01957e-11 0)
(0.425 -1.36538e-11 0)
(0.425 -1.63179e-11 0)
(0.425 -2.22332e-11 0)
(0.475 -1.92694e-10 0)
(0.475 -2.05098e-10 0)
(0.475 -1.6337e-10 0)
(0.475 -1.16734e-10 0)
(0.475 -7.90853e-11 0)
(0.475 -5.02161e-11 0)
(0.475 -2.9886e-11 0)
(0.475 -1.64905e-11 0)
(0.475 -8.25063e-12 0)
(0.475 -3.66208e-12 0)
(0.475 -1.62781e-12 0)
(0.475 -1.46169e-12 0)
(0.475 -2.84042e-12 0)
(0.475 -5.78442e-12 0)
(0.475 -1.0631e-11 0)
(0.475 -1.81867e-11 0)
(0.475 -2.92028e-11 0)
(0.475 -4.64125e-11 0)
(0.475 -6.96571e-11 0)
(0.475 -7.47967e-11 0)
(0.525 -1.02459e-10 0)
(0.525 -1.02653e-10 0)
(0.525 -8.40288e-11 0)
(0.525 -6.1379e-11 0)
(0.525 -4.27629e-11 0)
(0.525 -2.76059e-11 0)
(0.525 -1.62858e-11 0)
(0.525 -8.5198e-12 0)
(0.525 -3.70492e-12 0)
(0.525 -1.19525e-12 0)
(0.525 -4.88348e-13 0)
(0.525 -1.32601e-12 0)
(0.525 -3.74793e-12 0)
(0.525 -8.18962e-12 0)
(0.525 -1.56018e-11 0)
(0.525 -2.77954e-11 0)
(0.525 -4.69238e-11 0)
(0.525 -7.69498e-11 0)
(0.525 -1.19748e-10 0)
(0.525 -1.24508e-10 0)
(0.575 -1.00741e-11 0)
(0.575 2.5706e-12 0)
(0.575 -2.07812e-12 0)
(0.575 -4.05808e-12 0)
(0.575 -5.02697e-12 0)
(0.575 -4.06659e-12 0)
(0.575 -2.13513e-12 0)
(0.575 -2.59912e-13 0)
(0.575 9.71847e-13 0)
(0.575 1.32871e-12 0)
(0.575 7.04819e-13 0)
(0.575 -1.07006e-12 0)
(0.575 -4.37957e-12 0)
(0.575 -1.0025e-11 0)
(0.575 -1.94792e-11 0)
(0.575 -3.54044e-11 0)
(0.575 -6.12113e-11 0)
(0.575 -1.01928e-10 0)
(0.575 -1.61965e-10 0)
(0.575 -1.66956e-10 0)
(0.625 7.60997e-11 0)
(0.625 1.00494e-10 0)
(0.625 7.3238e-11 0)
(0.625 4.79614e-11 0)
(0.625 2.89488e-11 0)
(0.625 1.69748e-11 0)
(0.625 1.04124e-11 0)
(0.625 6.98616e-12 0)
(0.625 5.0177e-12 0)
(0.625 3.48405e-12 0)
(0.625 1.7398e-12 0)
(0.625 -7.5318e-13 0)
(0.625 -4.65385e-12 0)
(0.625 -1.10313e-11 0)
(0.625 -2.1728e-11 0)
(0.625 -4.00227e-11 0)
(0.625 -7.0349e-11 0)
(0.625 -1.18629e-10 0)
(0.625 -1.92382e-10 0)
(0.625 -1.98318e-10 0)
(0.675 1.47986e-10 0)
(0.675 1.81217e-10 0)
(0.675 1.32997e-10 0)
(0.675 8.78954e-11 0)
(0.675 5.44581e-11 0)
(0.675 3.24775e-11 0)
(0.675 1.94826e-11 0)
(0.675 1.21049e-11 0)
(0.675 7.78992e-12 0)
(0.675 4.91315e-12 0)
(0.675 2.43316e-12 0)
(0.675 -4.4252e-13 0)
(0.675 -4.5412e-12 0)
(0.675 -1.10666e-11 0)
(0.675 -2.20349e-11 0)
(0.675 -4.10417e-11 0)
(0.675 -7.32181e-11 0)
(0.675 -1.2515e-10 0)
(0.675 -2.0797e-10 0)
(0.675 -2.15564e-10 0)
(0.725 1.98183e-10 0)
(0.725 2.35626e-10 0)
(0.725 1.69547e-10 0)
(0.725 1.10363e-10 0)
(0.725 6.80408e-11 0)
(0.725 4.03366e-11 0)
(0.725 2.38499e-11 0)
(0.725 1.44014e-11 0)
(0.725 8.90388e-12 0)
(0.725 5.40702e-12 0)
(0.725 2.67426e-12 0)
(0.725 -1.93583e-13 0)
(0.725 -4.06417e-12 0)
(0.725 -1.0127e-11 0)
(0.725 -2.03551e-11 0)
(0.725 -3.83197e-11 0)
(0.725 -6.94298e-11 0)
(0.725 -1.20587e-10 0)
(0.725 -2.06772e-10 0)
(0.725 -2.1663e-10 0)
(0.775 2.20726e-10 0)
(0.775 2.56274e-10 0)
(0.775 1.77528e-10 0)
(0.775 1.12424e-10 0)
(0.775 6.82127e-11 0)
(0.775 3.98712e-11 0)
(0.775 2.32257e-11 0)
(0.775 1.37692e-11 0)
(0.775 8.32819e-12 0)
(0.775 4.95931e-12 0)
(0.775 2.45466e-12 0)
(0.775 -3.53481e-14 0)
(0.775 -3.29292e-12 0)
(0.775 -8.35211e-12 0)
(0.775 -1.69328e-11 0)
(0.775 -3.22286e-11 0)
(0.775 -5.94261e-11 0)
(0.775 -1.05193e-10 0)
(0.775 -1.88126e-10 0)
(0.775 -2.00629e-10 0)
(0.825 2.11086e-10 0)
(0.825 2.38085e-10 0)
(0.825 1.55308e-10 0)
(0.825 9.45417e-11 0)
(0.825 5.60705e-11 0)
(0.825 3.21138e-11 0)
(0.825 1.83962e-11 0)
(0.825 1.07448e-11 0)
(0.825 6.4076e-12 0)
(0.825 3.77564e-12 0)
(0.825 1.87457e-12 0)
(0.825 3.63889e-14 0)
(0.825 -2.33621e-12 0)
(0.825 -6.01326e-12 0)
(0.825 -1.22904e-11 0)
(0.825 -2.36641e-11 0)
(0.825 -4.45417e-11 0)
(0.825 -8.05627e-11 0)
(0.825 -1.52796e-10 0)
(0.825 -1.67853e-10 0)
(0.875 1.68583e-10 0)
(0.875 1.8186e-10 0)
(0.875 1.07628e-10 0)
(0.875 6.21008e-11 0)
(0.875 3.58276e-11 0)
(0.875 1.99776e-11 0)
(0.875 1.12252e-11 0)
(0.875 6.47341e-12 0)
(0.875 3.82496e-12 0)
(0.875 2.24424e-12 0)
(0.875 1.12158e-12 0)
(0.875 4.38479e-14 0)
(0.875 -1.35581e-12 0)
(0.875 -3.53288e-12 0)
(0.875 -7.25917e-12 0)
(0.875 -1.41243e-11 0)
(0.875 -2.72649e-11 0)
(0.875 -5.0359e-11 0)
(0.875 -1.04345e-10 0)
(0.875 -1.20617e-10 0)
(0.925 1.00082e-10 0)
(0.925 1.00773e-10 0)
(0.925 5.05876e-11 0)
(0.925 2.68467e-11 0)
(0.925 1.49906e-11 0)
(0.925 8.01835e-12 0)
(0.925 4.38302e-12 0)
(0.925 2.49813e-12 0)
(0.925 1.47273e-12 0)
(0.925 8.7302e-13 0)
(0.925 4.50274e-13 0)
(0.925 3.48372e-14 0)
(0.925 -5.26291e-13 0)
(0.925 -1.40935e-12 0)
(0.925 -2.92515e-12 0)
(0.925 -5.77334e-12 0)
(0.925 -1.15552e-11 0)
(0.925 -2.167e-11 0)
(0.925 -5.21192e-11 0)
(0.925 -6.57645e-11 0)
(0.975 3.09156e-11 0)
(0.975 2.8898e-11 0)
(0.975 1.15251e-11 0)
(0.975 5.35425e-12 0)
(0.975 2.87408e-12 0)
(0.975 1.43173e-12 0)
(0.975 7.50494e-13 0)
(0.975 4.23405e-13 0)
(0.975 2.49801e-13 0)
(0.975 1.49535e-13 0)
(0.975 7.92296e-14 0)
(0.975 5.20288e-15 0)
(0.975 -1.07248e-13 0)
(0.975 -2.8807e-13 0)
(0.975 -5.83344e-13 0)
(0.975 -1.1462e-12 0)
(0.975 -2.41371e-12 0)
(0.975 -4.53236e-12 0)
(0.975 -1.35671e-11 0)
(0.975 -1.89716e-11 0)
)
;

boundaryField
{
    top
    {
        type            fixedValue;
        value           uniform (1 0 0);
    }
    bottom
    {
        type            fixedValue;
        value           uniform (0 0 0);
    }
    inlet
    {
        type            zeroGradient;
    }
    outlet
    {
        type            zeroGradient;
    }
    frontAndBack
    {
        type            empty;
    }
}


// ************************************************************************* //
