/*--------------------------------*- C++ -*----------------------------------*\
  =========                 |
  \\      /  F ield         | OpenFOAM: The Open Source CFD Toolbox
   \\    /   O peration     | Website:  https://openfoam.org
    \\  /    A nd           | Version:  9
     \\/     M anipulation  |
\*---------------------------------------------------------------------------*/
FoamFile
{
    format      ascii;
    class       volScalarField;
    location    "2.9";
    object      p;
}
// * * * * * * * * * * * * * * * * * * * * * * * * * * * * * * * * * * * * * //

dimensions      [0 2 -2 0 0 0 0];

internalField   nonuniform List<scalar> 
400
(
2.17068e-09
3.59748e-09
3.47868e-09
3.30887e-09
3.03004e-09
2.69983e-09
2.35583e-09
2.00585e-09
1.65571e-09
1.30837e-09
9.6225e-10
6.15117e-10
2.66182e-10
-8.44026e-11
-4.36274e-10
-7.90106e-10
-1.1368e-09
-1.45141e-09
-1.84871e-09
-1.16796e-09
2.05863e-09
3.42734e-09
3.29798e-09
3.20059e-09
2.96437e-09
2.66023e-09
2.33293e-09
1.99305e-09
1.64885e-09
1.30493e-09
9.60787e-10
6.14925e-10
2.67158e-10
-8.16642e-11
-4.2987e-10
-7.76271e-10
-1.10743e-09
-1.38397e-09
-1.80468e-09
-1.13802e-09
2.08141e-09
3.44233e-09
3.19708e-09
3.13099e-09
2.91759e-09
2.62931e-09
2.31385e-09
1.98175e-09
1.64232e-09
1.30124e-09
9.58816e-10
6.1416e-10
2.67498e-10
-7.98636e-11
-4.25457e-10
-7.67645e-10
-1.09251e-09
-1.35132e-09
-1.86279e-09
-1.1799e-09
2.16133e-09
3.59238e-09
3.17584e-09
3.1016e-09
2.8923e-09
2.60925e-09
2.30003e-09
1.97269e-09
1.63645e-09
1.29739e-09
9.56347e-10
6.1274e-10
2.66983e-10
-7.94526e-11
-4.23893e-10
-7.65477e-10
-1.0926e-09
-1.35369e-09
-1.98033e-09
-1.24469e-09
2.24886e-09
3.80024e-09
3.19581e-09
3.09491e-09
2.87992e-09
2.59597e-09
2.28948e-09
1.96492e-09
1.63081e-09
1.29331e-09
9.53456e-10
6.10779e-10
2.65716e-10
-8.02473e-11
-4.24601e-10
-7.67765e-10
-1.1017e-09
-1.37295e-09
-2.1118e-09
-1.30627e-09
2.32968e-09
4.02486e-09
3.23623e-09
3.10051e-09
2.87528e-09
2.58677e-09
2.28077e-09
1.95779e-09
1.62521e-09
1.28902e-09
9.50234e-10
6.08386e-10
2.63843e-10
-8.19722e-11
-4.26869e-10
-7.72665e-10
-1.11509e-09
-1.39812e-09
-2.23238e-09
-1.35637e-09
2.40097e-09
4.24348e-09
3.28523e-09
3.11206e-09
2.87477e-09
2.57985e-09
2.273e-09
1.95091e-09
1.61958e-09
1.28456e-09
9.46786e-10
6.05689e-10
2.61541e-10
-8.42998e-11
-4.29993e-10
-7.78552e-10
-1.12937e-09
-1.42255e-09
-2.32944e-09
-1.39355e-09
2.45991e-09
4.43746e-09
3.33322e-09
3.12398e-09
2.87516e-09
2.57354e-09
2.26536e-09
1.94396e-09
1.61383e-09
1.27999e-09
9.43214e-10
6.0284e-10
2.59047e-10
-8.68233e-11
-4.33182e-10
-7.83859e-10
-1.14143e-09
-1.44125e-09
-2.39421e-09
-1.41641e-09
2.50472e-09
4.59231e-09
3.3724e-09
3.13195e-09
2.87389e-09
2.56661e-09
2.25733e-09
1.93675e-09
1.60795e-09
1.27537e-09
9.39636e-10
6.00009e-10
2.56624e-10
-8.91017e-11
-4.35667e-10
-7.87194e-10
-1.14879e-09
-1.45055e-09
-2.42171e-09
-1.42458e-09
2.53408e-09
4.6974e-09
3.39746e-09
3.13322e-09
2.86946e-09
2.55845e-09
2.24874e-09
1.9293e-09
1.60203e-09
1.27083e-09
9.36188e-10
5.97371e-10
2.54529e-10
-9.07396e-11
-4.36809e-10
-7.87532e-10
-1.14973e-09
-1.44835e-09
-2.41009e-09
-1.41816e-09
2.54702e-09
4.74584e-09
3.4054e-09
3.12671e-09
2.86147e-09
2.54914e-09
2.23985e-09
1.92189e-09
1.5963e-09
1.26653e-09
9.33013e-10
5.95079e-10
2.52962e-10
-9.14539e-11
-4.36204e-10
-7.84319e-10
-1.14343e-09
-1.43397e-09
-2.36027e-09
-1.39776e-09
2.54269e-09
4.73426e-09
3.39559e-09
3.11294e-09
2.85053e-09
2.53935e-09
2.23127e-09
1.91497e-09
1.59107e-09
1.26268e-09
9.30253e-10
5.93244e-10
2.52033e-10
-9.11271e-11
-4.33747e-10
-7.77544e-10
-1.13002e-09
-1.40811e-09
-2.27547e-09
-1.36435e-09
2.52031e-09
4.66299e-09
3.36981e-09
3.09392e-09
2.83821e-09
2.53027e-09
2.22388e-09
1.90916e-09
1.58672e-09
1.2595e-09
9.2803e-10
5.91924e-10
2.51746e-10
-8.98377e-11
-4.29671e-10
-7.67774e-10
-1.11056e-09
-1.37275e-09
-2.16104e-09
-1.31924e-09
2.47962e-09
4.53672e-09
3.33237e-09
3.07314e-09
2.82679e-09
2.52341e-09
2.21865e-09
1.90507e-09
1.58362e-09
1.25721e-09
9.26431e-10
5.91112e-10
2.51989e-10
-8.78656e-11
-4.24556e-10
-7.56147e-10
-1.08705e-09
-1.33113e-09
-2.02445e-09
-1.26424e-09
2.42075e-09
4.365e-09
3.29044e-09
3.05527e-09
2.8191e-09
2.52038e-09
2.21653e-09
1.90323e-09
1.58208e-09
1.25593e-09
9.25495e-10
5.90739e-10
2.52548e-10
-8.56648e-11
-4.19277e-10
-7.44309e-10
-1.06235e-09
-1.28774e-09
-1.8752e-09
-1.20172e-09
2.34534e-09
4.16328e-09
3.25335e-09
3.04578e-09
2.81802e-09
2.52262e-09
2.21819e-09
1.90399e-09
1.58224e-09
1.25573e-09
9.25194e-10
5.90681e-10
2.53136e-10
-8.38043e-11
-4.14903e-10
-7.34245e-10
-1.03998e-09
-1.248e-09
-1.72489e-09
-1.13477e-09
2.25465e-09
3.9528e-09
3.23323e-09
3.05017e-09
2.82619e-09
2.53111e-09
2.22395e-09
1.90737e-09
1.58406e-09
1.25654e-09
9.25443e-10
5.90776e-10
2.53429e-10
-8.29051e-11
-4.12575e-10
-7.28116e-10
-1.02392e-09
-1.21849e-09
-1.58713e-09
-1.06673e-09
2.1619e-09
3.77515e-09
3.25051e-09
3.07713e-09
2.84704e-09
2.54713e-09
2.23412e-09
1.91341e-09
1.58748e-09
1.25829e-09
9.26142e-10
5.90838e-10
2.5304e-10
-8.37159e-11
-4.13657e-10
-7.28563e-10
-1.01959e-09
-1.20975e-09
-1.48452e-09
-1.00671e-09
2.10933e-09
3.70815e-09
3.34296e-09
3.14102e-09
2.88659e-09
2.5728e-09
2.24942e-09
1.92231e-09
1.5926e-09
1.26103e-09
9.27308e-10
5.90774e-10
2.51689e-10
-8.68706e-11
-4.19546e-10
-7.38713e-10
-1.03422e-09
-1.23868e-09
-1.45695e-09
-9.82949e-10
2.17465e-09
3.82023e-09
3.51091e-09
3.23953e-09
2.94189e-09
2.60548e-09
2.26803e-09
1.93295e-09
1.59872e-09
1.2644e-09
9.28771e-10
5.90588e-10
2.49584e-10
-9.18664e-11
-4.29382e-10
-7.57195e-10
-1.06698e-09
-1.30461e-09
-1.52878e-09
-1.03769e-09
)
;

boundaryField
{
    top
    {
        type            zeroGradient;
    }
    bottom
    {
        type            zeroGradient;
    }
    inlet
    {
        type            fixedValue;
        value           uniform 0;
    }
    outlet
    {
        type            fixedValue;
        value           uniform 0;
    }
    frontAndBack
    {
        type            empty;
    }
}


// ************************************************************************* //
