/*--------------------------------*- C++ -*----------------------------------*\
  =========                 |
  \\      /  F ield         | OpenFOAM: The Open Source CFD Toolbox
   \\    /   O peration     | Website:  https://openfoam.org
    \\  /    A nd           | Version:  9
     \\/     M anipulation  |
\*---------------------------------------------------------------------------*/
FoamFile
{
    format      ascii;
    class       surfaceScalarField;
    location    "2.9";
    object      phi;
}
// * * * * * * * * * * * * * * * * * * * * * * * * * * * * * * * * * * * * * //

dimensions      [0 3 -1 0 0 0 0];

internalField   nonuniform List<scalar> 
760
(
1.25e-06
-1.32947e-14
1.25e-06
-1.10637e-14
1.25e-06
-5.27028e-15
1.25e-06
-2.99671e-15
1.25e-06
-1.72019e-15
1.25e-06
-9.45391e-16
1.25e-06
-5.18103e-16
1.25e-06
-2.71319e-16
1.25e-06
-1.32466e-16
1.25e-06
-6.03315e-17
1.25e-06
-2.26562e-17
1.25e-06
4.95128e-19
1.25e-06
2.18037e-17
1.25e-06
5.63477e-17
1.25e-06
1.3351e-16
1.25e-06
3.37142e-16
1.25e-06
8.03977e-16
1.25e-06
1.79819e-15
1.25e-06
5.66282e-15
6.53673e-15
3.74999e-06
-3.20042e-14
3.74999e-06
-2.99907e-14
3.74999e-06
-1.71471e-14
3.74999e-06
-1.02051e-14
3.74999e-06
-6.02236e-15
3.74999e-06
-3.42677e-15
3.74999e-06
-1.91417e-15
3.74999e-06
-1.03065e-15
3.74999e-06
-5.2444e-16
3.74999e-06
-2.44778e-16
3.74999e-06
-9.12856e-17
3.74999e-06
1.10057e-18
3.74999e-06
8.13335e-17
3.74999e-06
2.07248e-16
3.74999e-06
4.82393e-16
3.74999e-06
1.14576e-15
3.74999e-06
2.62602e-15
3.74999e-06
5.63871e-15
3.74999e-06
1.37424e-14
1.45233e-14
6.24999e-06
-4.86771e-14
6.24999e-06
-4.88358e-14
6.24999e-06
-3.10438e-14
6.24999e-06
-1.92239e-14
6.24999e-06
-1.16492e-14
6.24999e-06
-6.78912e-15
6.24999e-06
-3.85304e-15
6.24999e-06
-2.10755e-15
6.24999e-06
-1.09296e-15
6.24999e-06
-5.20085e-16
6.24999e-06
-2.00959e-16
6.24999e-06
-1.11252e-17
6.24999e-06
1.4645e-16
6.24999e-06
3.83369e-16
6.24999e-06
8.8789e-16
6.24999e-06
2.04965e-15
6.24999e-06
4.55112e-15
6.24999e-06
9.41386e-15
6.24999e-06
1.99403e-14
1.99552e-14
8.74998e-06
-6.11612e-14
8.74998e-06
-6.37019e-14
8.74998e-06
-4.33598e-14
8.74998e-06
-2.78222e-14
8.74998e-06
-1.72668e-14
8.74998e-06
-1.0263e-14
8.74998e-06
-5.9047e-15
8.74998e-06
-3.26828e-15
8.74998e-06
-1.71547e-15
8.74998e-06
-8.28042e-16
8.74998e-06
-3.31728e-16
8.74998e-06
-4.2406e-17
8.74998e-06
1.83642e-16
8.74998e-06
5.04848e-16
8.74998e-06
1.17438e-15
8.74998e-06
2.67466e-15
8.74998e-06
5.82379e-15
8.74998e-06
1.16454e-14
8.74998e-06
2.27744e-14
2.20877e-14
1.125e-05
-6.81821e-14
1.125e-05
-7.26002e-14
1.125e-05
-5.18732e-14
1.125e-05
-3.42795e-14
1.125e-05
-2.1726e-14
1.125e-05
-1.31301e-14
1.125e-05
-7.64297e-15
1.125e-05
-4.26796e-15
1.125e-05
-2.25737e-15
1.125e-05
-1.10003e-15
1.125e-05
-4.55002e-16
1.125e-05
-9.1471e-17
1.125e-05
1.67789e-16
1.125e-05
5.07922e-16
1.125e-05
1.20781e-15
1.125e-05
2.76517e-15
1.125e-05
5.9937e-15
1.125e-05
1.17244e-14
1.125e-05
2.1863e-14
2.07232e-14
1.375e-05
-6.94005e-14
1.375e-05
-7.4854e-14
1.375e-05
-5.54162e-14
1.375e-05
-3.75082e-14
1.375e-05
-2.42021e-14
1.375e-05
-1.48336e-14
1.375e-05
-8.71685e-15
1.375e-05
-4.89682e-15
1.375e-05
-2.59895e-15
1.375e-05
-1.27184e-15
1.375e-05
-5.40442e-16
1.375e-05
-1.50337e-16
1.375e-05
8.82607e-17
1.375e-05
3.59858e-16
1.375e-05
9.24266e-16
1.375e-05
2.21605e-15
1.375e-05
4.93331e-15
1.375e-05
9.60859e-15
1.375e-05
1.75555e-14
1.62313e-14
1.625e-05
-6.50468e-14
1.625e-05
-7.05992e-14
1.625e-05
-5.36764e-14
1.625e-05
-3.70289e-14
1.625e-05
-2.42579e-14
1.625e-05
-1.5042e-14
1.625e-05
-8.9028e-15
1.625e-05
-5.01452e-15
1.625e-05
-2.657e-15
1.625e-05
-1.29647e-15
1.625e-05
-5.63066e-16
1.625e-05
-2.06918e-16
1.625e-05
-5.00837e-17
1.625e-05
6.31919e-17
1.625e-05
3.31951e-16
1.625e-05
1.06468e-15
1.625e-05
2.76344e-15
1.625e-05
5.63823e-15
1.625e-05
1.05474e-14
9.24071e-15
1.875e-05
-5.58247e-14
1.875e-05
-6.05853e-14
1.875e-05
-4.7005e-14
1.875e-05
-3.29188e-14
1.875e-05
-2.18478e-14
1.875e-05
-1.36793e-14
1.875e-05
-8.1329e-15
1.875e-05
-4.57232e-15
1.875e-05
-2.39985e-15
1.875e-05
-1.15399e-15
1.875e-05
-5.09215e-16
1.875e-05
-2.48661e-16
1.875e-05
-2.29386e-16
1.875e-05
-3.48512e-16
1.875e-05
-4.99254e-16
1.875e-05
-5.42433e-16
1.875e-05
-2.18478e-16
1.875e-05
3.73666e-16
1.875e-05
1.73879e-15
5.64688e-16
2.125e-05
-4.27588e-14
2.125e-05
-4.59866e-14
2.125e-05
-3.62722e-14
2.125e-05
-2.57241e-14
2.125e-05
-1.72877e-14
2.125e-05
-1.09183e-14
2.125e-05
-6.49992e-15
2.125e-05
-3.6197e-15
2.125e-05
-1.85333e-15
2.125e-05
-8.56151e-16
2.125e-05
-3.80348e-16
2.125e-05
-2.66112e-16
2.125e-05
-4.23729e-16
2.125e-05
-8.19488e-16
2.125e-05
-1.45729e-15
2.125e-05
-2.388e-15
2.125e-05
-3.61552e-15
2.125e-05
-5.51502e-15
2.125e-05
-7.90322e-15
-8.91782e-15
2.375e-05
-2.71212e-14
2.375e-05
-2.82904e-14
2.375e-05
-2.2732e-14
2.375e-05
-1.63609e-14
2.375e-05
-1.11912e-14
2.375e-05
-7.14614e-15
2.375e-05
-4.23878e-15
2.375e-05
-2.29536e-15
2.375e-05
-1.09676e-15
2.375e-05
-4.452e-16
2.375e-05
-1.93703e-16
2.375e-05
-2.55546e-16
2.375e-05
-6.04716e-16
2.375e-05
-1.28322e-15
2.375e-05
-2.40951e-15
2.375e-05
-4.22436e-15
2.375e-05
-6.99442e-15
2.375e-05
-1.13369e-14
2.375e-05
-1.74171e-14
-1.83157e-14
2.625e-05
-1.03433e-14
2.625e-05
-9.19305e-15
2.625e-05
-7.90185e-15
2.625e-05
-6.00166e-15
2.625e-05
-4.38275e-15
2.625e-05
-2.90388e-15
2.625e-05
-1.68797e-15
2.625e-05
-8.03595e-16
2.625e-05
-2.4918e-16
2.625e-05
1.33792e-17
2.625e-05
2.05066e-17
2.625e-05
-2.19846e-16
2.625e-05
-7.46656e-16
2.625e-05
-1.6738e-15
2.625e-05
-3.22411e-15
2.625e-05
-5.80907e-15
2.625e-05
-9.93983e-15
2.625e-05
-1.64436e-14
2.625e-05
-2.59082e-14
-2.67844e-14
2.875e-05
6.06413e-15
2.875e-05
9.49214e-15
2.875e-05
6.55922e-15
2.875e-05
4.05092e-15
2.875e-05
2.20917e-15
2.875e-05
1.19349e-15
2.875e-05
7.65378e-16
2.875e-05
6.21112e-16
2.875e-05
5.52164e-16
2.875e-05
4.43186e-16
2.875e-05
2.25028e-16
2.875e-05
-1.6753e-16
2.875e-05
-8.30458e-16
2.875e-05
-1.93589e-15
2.875e-05
-3.78865e-15
2.875e-05
-6.93526e-15
2.875e-05
-1.20966e-14
2.875e-05
-2.02791e-14
2.875e-05
-3.25917e-14
-3.3568e-14
3.125e-05
2.05875e-14
3.125e-05
2.5929e-14
3.125e-05
1.89829e-14
3.125e-05
1.25047e-14
3.125e-05
7.6769e-15
3.125e-05
4.55129e-15
3.125e-05
2.7512e-15
3.125e-05
1.75662e-15
3.125e-05
1.17817e-15
3.125e-05
7.72203e-16
3.125e-05
3.83562e-16
3.125e-05
-1.10198e-16
3.125e-05
-8.45819e-16
3.125e-05
-2.03245e-15
3.125e-05
-4.02493e-15
3.125e-05
-7.45573e-15
3.125e-05
-1.3204e-14
3.125e-05
-2.24187e-14
3.125e-05
-3.68285e-14
-3.80366e-14
3.375e-05
3.18124e-14
3.375e-05
3.83733e-14
3.375e-05
2.78419e-14
3.375e-05
1.82417e-14
3.375e-05
1.12685e-14
3.375e-05
6.69676e-15
3.375e-05
3.98441e-15
3.375e-05
2.43684e-15
3.375e-05
1.53444e-15
3.375e-05
9.48392e-16
3.375e-05
4.69086e-16
3.375e-05
-5.90673e-17
3.375e-05
-7.92019e-16
3.375e-05
-1.94994e-15
3.375e-05
-3.89977e-15
3.375e-05
-7.30098e-15
3.375e-05
-1.31228e-14
3.375e-05
-2.26034e-14
3.375e-05
-3.81609e-14
-3.97228e-14
3.625e-05
3.84928e-14
3.625e-05
4.52978e-14
3.625e-05
3.1947e-14
3.625e-05
2.04952e-14
3.625e-05
1.25311e-14
3.625e-05
7.37367e-15
3.625e-05
4.32648e-15
3.625e-05
2.58827e-15
3.625e-05
1.58297e-15
3.625e-05
9.52089e-16
3.625e-05
4.70772e-16
3.625e-05
-2.18404e-17
3.625e-05
-6.77529e-16
3.625e-05
-1.70081e-15
3.625e-05
-3.43141e-15
3.625e-05
-6.49219e-15
3.625e-05
-1.18581e-14
3.625e-05
-2.07756e-14
3.625e-05
-3.63481e-14
-3.83519e-14
3.875e-05
3.9748e-14
3.875e-05
4.56258e-14
3.875e-05
3.06804e-14
3.875e-05
1.90579e-14
3.875e-05
1.14352e-14
3.875e-05
6.61981e-15
3.875e-05
3.82544e-15
3.875e-05
2.25226e-15
3.875e-05
1.35351e-15
3.875e-05
8.02166e-16
3.875e-05
3.97251e-16
3.875e-05
-8.38066e-19
3.875e-05
-5.19105e-16
3.875e-05
-1.32352e-15
3.875e-05
-2.69162e-15
3.875e-05
-5.14819e-15
3.875e-05
-9.57892e-15
3.875e-05
-1.71184e-14
3.875e-05
-3.14341e-14
-3.39014e-14
4.125e-05
3.51277e-14
4.125e-05
3.89703e-14
4.125e-05
2.43454e-14
4.125e-05
1.44628e-14
4.125e-05
8.47294e-15
4.125e-05
4.79638e-15
4.125e-05
2.72503e-15
4.125e-05
1.58291e-15
4.125e-05
9.40516e-16
4.125e-05
5.53348e-16
4.125e-05
2.75346e-16
4.125e-05
6.92718e-18
4.125e-05
-3.40601e-16
4.125e-05
-8.80195e-16
4.125e-05
-1.80303e-15
4.125e-05
-3.48733e-15
4.125e-05
-6.63304e-15
4.125e-05
-1.21126e-14
4.125e-05
-2.38235e-14
-2.66519e-14
4.375e-05
2.51377e-14
4.375e-05
2.63079e-14
4.375e-05
1.45368e-14
4.375e-05
8.15971e-15
4.375e-05
4.65373e-15
4.375e-05
2.55848e-15
4.375e-05
1.42462e-15
4.375e-05
8.18478e-16
4.375e-05
4.83248e-16
4.375e-05
2.84511e-16
4.375e-05
1.43563e-16
4.375e-05
7.24569e-18
4.375e-05
-1.7185e-16
4.375e-05
-4.51485e-16
4.375e-05
-9.31246e-16
4.375e-05
-1.82099e-15
4.375e-05
-3.56217e-15
4.375e-05
-6.61383e-15
4.375e-05
-1.44963e-14
-1.73459e-14
4.625e-05
1.1109e-14
4.625e-05
1.06513e-14
4.625e-05
4.75221e-15
4.625e-05
2.4443e-15
4.625e-05
1.36894e-15
4.625e-05
7.17885e-16
4.625e-05
3.88898e-16
4.625e-05
2.21599e-16
4.625e-05
1.3115e-16
4.625e-05
7.8642e-17
4.625e-05
4.18493e-17
4.625e-05
4.96919e-18
4.625e-05
-4.68595e-17
4.625e-05
-1.28901e-16
4.625e-05
-2.67828e-16
4.625e-05
-5.29491e-16
4.625e-05
-1.07961e-15
4.625e-05
-1.99701e-15
4.625e-05
-5.30163e-15
-7.17996e-15
4.875e-05
4.875e-05
4.875e-05
4.875e-05
4.875e-05
4.875e-05
4.875e-05
4.875e-05
4.875e-05
4.875e-05
4.875e-05
4.875e-05
4.875e-05
4.875e-05
4.875e-05
4.875e-05
4.875e-05
4.875e-05
4.875e-05
)
;

boundaryField
{
    top
    {
        type            calculated;
        value           uniform 0;
    }
    bottom
    {
        type            calculated;
        value           uniform 0;
    }
    inlet
    {
        type            calculated;
        value           nonuniform List<scalar> 
20
(
-1.25e-06
-3.74999e-06
-6.24999e-06
-8.74998e-06
-1.125e-05
-1.375e-05
-1.625e-05
-1.875e-05
-2.125e-05
-2.375e-05
-2.625e-05
-2.875e-05
-3.125e-05
-3.375e-05
-3.625e-05
-3.875e-05
-4.125e-05
-4.375e-05
-4.625e-05
-4.875e-05
)
;
    }
    outlet
    {
        type            calculated;
        value           nonuniform List<scalar> 
20
(
1.25e-06
3.74999e-06
6.24999e-06
8.74998e-06
1.125e-05
1.375e-05
1.625e-05
1.875e-05
2.125e-05
2.375e-05
2.625e-05
2.875e-05
3.125e-05
3.375e-05
3.625e-05
3.875e-05
4.125e-05
4.375e-05
4.625e-05
4.875e-05
)
;
    }
    frontAndBack
    {
        type            empty;
        value           nonuniform List<scalar> 0();
    }
}


// ************************************************************************* //
