/*--------------------------------*- C++ -*----------------------------------*\
  =========                 |
  \\      /  F ield         | OpenFOAM: The Open Source CFD Toolbox
   \\    /   O peration     | Website:  https://openfoam.org
    \\  /    A nd           | Version:  9
     \\/     M anipulation  |
\*---------------------------------------------------------------------------*/
FoamFile
{
    format      ascii;
    class       volVectorField;
    location    "2.9";
    object      U;
}
// * * * * * * * * * * * * * * * * * * * * * * * * * * * * * * * * * * * * * //

dimensions      [0 1 -1 0 0 0 0];

internalField   nonuniform List<vector> 
400
(
(0.025 -6.50556e-11 0)
(0.025 -5.20309e-11 0)
(0.025 -2.1856e-11 0)
(0.025 -1.16434e-11 0)
(0.025 -6.42238e-12 0)
(0.025 -3.40335e-12 0)
(0.025 -1.83528e-12 0)
(0.025 -9.19013e-13 0)
(0.025 -4.14738e-13 0)
(0.025 -1.77121e-13 0)
(0.025 -6.39401e-14 0)
(0.025 9.45252e-15 0)
(0.025 8.57919e-14 0)
(0.025 2.15409e-13 0)
(0.025 5.12718e-13 0)
(0.025 1.35961e-12 0)
(0.025 3.39018e-12 0)
(0.025 8.08356e-12 0)
(0.025 2.85432e-11 0)
(0.025 3.34708e-11 0)
(0.0749999 -2.24012e-10 0)
(0.0749999 -1.99146e-10 0)
(0.0749999 -1.03953e-10 0)
(0.0749999 -5.96669e-11 0)
(0.0749999 -3.44597e-11 0)
(0.0749999 -1.91587e-11 0)
(0.0749999 -1.05345e-11 0)
(0.0749999 -5.57284e-12 0)
(0.0749999 -2.76443e-12 0)
(0.0749999 -1.25495e-12 0)
(0.0749999 -4.46589e-13 0)
(0.0749999 4.23357e-14 0)
(0.0749999 4.83358e-13 0)
(0.0749999 1.20154e-12 0)
(0.0749999 2.81147e-12 0)
(0.0749999 6.87311e-12 0)
(0.0749999 1.61557e-11 0)
(0.0749999 3.59499e-11 0)
(0.0749999 9.76858e-11 0)
(0.0749999 1.07239e-10 0)
(0.125 -4.07411e-10 0)
(0.125 -3.95653e-10 0)
(0.125 -2.38973e-10 0)
(0.125 -1.44591e-10 0)
(0.125 -8.62477e-11 0)
(0.125 -4.95958e-11 0)
(0.125 -2.78909e-11 0)
(0.125 -1.51151e-11 0)
(0.125 -7.7561e-12 0)
(0.125 -3.65166e-12 0)
(0.125 -1.38025e-12 0)
(0.125 -1.20788e-14 0)
(0.125 1.16549e-12 0)
(0.125 2.98866e-12 0)
(0.125 6.92221e-12 0)
(0.125 1.61669e-11 0)
(0.125 3.64208e-11 0)
(0.125 7.68479e-11 0)
(0.125 1.72891e-10 0)
(0.125 1.77816e-10 0)
(0.175 -5.60579e-10 0)
(0.175 -5.73328e-10 0)
(0.175 -3.78052e-10 0)
(0.175 -2.3813e-10 0)
(0.175 -1.45876e-10 0)
(0.175 -8.57767e-11 0)
(0.175 -4.89715e-11 0)
(0.175 -2.69396e-11 0)
(0.175 -1.40609e-11 0)
(0.175 -6.74109e-12 0)
(0.175 -2.6465e-12 0)
(0.175 -2.21819e-13 0)
(0.175 1.75292e-12 0)
(0.175 4.6603e-12 0)
(0.175 1.0778e-11 0)
(0.175 2.46256e-11 0)
(0.175 5.40001e-11 0)
(0.175 1.09613e-10 0)
(0.175 2.21362e-10 0)
(0.175 2.18399e-10 0)
(0.225 -6.6103e-10 0)
(0.225 -6.96592e-10 0)
(0.225 -4.87063e-10 0)
(0.225 -3.17272e-10 0)
(0.225 -1.98939e-10 0)
(0.225 -1.19213e-10 0)
(0.225 -6.89798e-11 0)
(0.225 -3.8361e-11 0)
(0.225 -2.02293e-11 0)
(0.225 -9.82172e-12 0)
(0.225 -3.99722e-12 0)
(0.225 -6.37312e-13 0)
(0.225 1.90549e-12 0)
(0.225 5.40903e-12 0)
(0.225 1.26379e-11 0)
(0.225 2.86827e-11 0)
(0.225 6.20032e-11 0)
(0.225 1.22196e-10 0)
(0.225 2.3164e-10 0)
(0.225 2.22447e-10 0)
(0.275 -7.02293e-10 0)
(0.275 -7.53132e-10 0)
(0.275 -5.49211e-10 0)
(0.275 -3.6768e-10 0)
(0.275 -2.35221e-10 0)
(0.275 -1.43209e-10 0)
(0.275 -8.37877e-11 0)
(0.275 -4.69601e-11 0)
(0.275 -2.49104e-11 0)
(0.275 -1.2185e-11 0)
(0.275 -5.11332e-12 0)
(0.275 -1.20494e-12 0)
(0.275 1.43233e-12 0)
(0.275 4.71656e-12 0)
(0.275 1.14478e-11 0)
(0.275 2.64578e-11 0)
(0.275 5.7529e-11 0)
(0.275 1.11624e-10 0)
(0.275 2.04354e-10 0)
(0.275 1.91861e-10 0)
(0.325 -6.85393e-10 0)
(0.325 -7.42079e-10 0)
(0.325 -5.5815e-10 0)
(0.325 -3.81926e-10 0)
(0.325 -2.48497e-10 0)
(0.325 -1.53296e-10 0)
(0.325 -9.04698e-11 0)
(0.325 -5.09428e-11 0)
(0.325 -2.70604e-11 0)
(0.325 -1.3256e-11 0)
(0.325 -5.70579e-12 0)
(0.325 -1.81687e-12 0)
(0.325 3.094e-13 0)
(0.325 2.43984e-12 0)
(0.325 6.95826e-12 0)
(0.325 1.77062e-11 0)
(0.325 4.0827e-11 0)
(0.325 8.00471e-11 0)
(0.325 1.45877e-10 0)
(0.325 1.32616e-10 0)
(0.374999 -6.15337e-10 0)
(0.374999 -6.68452e-10 0)
(0.374999 -5.14598e-10 0)
(0.374999 -3.58217e-10 0)
(0.374999 -2.36405e-10 0)
(0.374999 -1.4742e-10 0)
(0.374999 -8.7532e-11 0)
(0.374999 -4.93286e-11 0)
(0.374999 -2.60779e-11 0)
(0.374999 -1.26804e-11 0)
(0.374999 -5.56739e-12 0)
(0.374999 -2.33876e-12 0)
(0.374999 -1.33768e-12 0)
(0.374999 -1.22017e-12 0)
(0.374999 -3.96276e-13 0)
(0.374999 3.44797e-12 0)
(0.374999 1.41922e-11 0)
(0.374999 3.23501e-11 0)
(0.374999 6.45734e-11 0)
(0.374999 5.216e-11 0)
(0.424999 -5.01001e-10 0)
(0.424999 -5.42188e-10 0)
(0.424999 -4.24966e-10 0)
(0.424999 -2.99883e-10 0)
(0.424999 -2.004e-10 0)
(0.424999 -1.26106e-10 0)
(0.424999 -7.51106e-11 0)
(0.424999 -4.2121e-11 0)
(0.424999 -2.19288e-11 0)
(0.424999 -1.04113e-11 0)
(0.424999 -4.63047e-12 0)
(0.424999 -2.65189e-12 0)
(0.424999 -3.27562e-12 0)
(0.424999 -5.78971e-12 0)
(0.424999 -9.6528e-12 0)
(0.424999 -1.43993e-11 0)
(0.424999 -1.87336e-11 0)
(0.424999 -2.50878e-11 0)
(0.424999 -2.99831e-11 0)
(0.424999 -4.08518e-11 0)
(0.474999 -3.54061e-10 0)
(0.474999 -3.76852e-10 0)
(0.474999 -3.0018e-10 0)
(0.474999 -2.1449e-10 0)
(0.474999 -1.45313e-10 0)
(0.474999 -9.22681e-11 0)
(0.474999 -5.49132e-11 0)
(0.474999 -3.02998e-11 0)
(0.474999 -1.51598e-11 0)
(0.474999 -6.72874e-12 0)
(0.474999 -2.99093e-12 0)
(0.474999 -2.6857e-12 0)
(0.474999 -5.21903e-12 0)
(0.474999 -1.06284e-11 0)
(0.474999 -1.95337e-11 0)
(0.474999 -3.34164e-11 0)
(0.474999 -5.36579e-11 0)
(0.474999 -8.52795e-11 0)
(0.474999 -1.2799e-10 0)
(0.474999 -1.37433e-10 0)
(0.524999 -1.88261e-10 0)
(0.524999 -1.88617e-10 0)
(0.524999 -1.54397e-10 0)
(0.524999 -1.12779e-10 0)
(0.524999 -7.85736e-11 0)
(0.524999 -5.07237e-11 0)
(0.524999 -2.99237e-11 0)
(0.524999 -1.56543e-11 0)
(0.524999 -6.80736e-12 0)
(0.524999 -2.19617e-12 0)
(0.524999 -8.97257e-13 0)
(0.524999 -2.43642e-12 0)
(0.524999 -6.88643e-12 0)
(0.524999 -1.50478e-11 0)
(0.524999 -2.86671e-11 0)
(0.524999 -5.10718e-11 0)
(0.524999 -8.62188e-11 0)
(0.524999 -1.41389e-10 0)
(0.524999 -2.20029e-10 0)
(0.524999 -2.28774e-10 0)
(0.574999 -1.85105e-11 0)
(0.574999 4.72316e-12 0)
(0.574999 -3.81844e-12 0)
(0.574999 -7.45645e-12 0)
(0.574999 -9.2368e-12 0)
(0.574999 -7.47199e-12 0)
(0.574999 -3.92299e-12 0)
(0.574999 -4.7733e-13 0)
(0.574999 1.78591e-12 0)
(0.574999 2.44145e-12 0)
(0.574999 1.29508e-12 0)
(0.574999 -1.96617e-12 0)
(0.574999 -8.047e-12 0)
(0.574999 -1.84203e-11 0)
(0.574999 -3.57916e-11 0)
(0.574999 -6.50527e-11 0)
(0.574999 -1.12471e-10 0)
(0.574999 -1.87285e-10 0)
(0.574999 -2.97599e-10 0)
(0.574999 -3.06769e-10 0)
(0.624999 1.39827e-10 0)
(0.624999 1.8465e-10 0)
(0.624999 1.34569e-10 0)
(0.624999 8.81254e-11 0)
(0.624999 5.31911e-11 0)
(0.624999 3.11901e-11 0)
(0.624999 1.9132e-11 0)
(0.624999 1.28367e-11 0)
(0.624999 9.21992e-12 0)
(0.624999 6.4018e-12 0)
(0.624999 3.19673e-12 0)
(0.624999 -1.3839e-12 0)
(0.624999 -8.55096e-12 0)
(0.624999 -2.02693e-11 0)
(0.624999 -3.99235e-11 0)
(0.624999 -7.35384e-11 0)
(0.624999 -1.29261e-10 0)
(0.624999 -2.17972e-10 0)
(0.624999 -3.53487e-10 0)
(0.624999 -3.64393e-10 0)
(0.675 2.71913e-10 0)
(0.675 3.32973e-10 0)
(0.675 2.44372e-10 0)
(0.675 1.61501e-10 0)
(0.675 1.00063e-10 0)
(0.675 5.9675e-11 0)
(0.675 3.57978e-11 0)
(0.675 2.2242e-11 0)
(0.675 1.43137e-11 0)
(0.675 9.02768e-12 0)
(0.675 4.47072e-12 0)
(0.675 -8.13098e-13 0)
(0.675 -8.34399e-12 0)
(0.675 -2.03341e-11 0)
(0.675 -4.04874e-11 0)
(0.675 -7.5411e-11 0)
(0.675 -1.34533e-10 0)
(0.675 -2.29954e-10 0)
(0.675 -3.82128e-10 0)
(0.675 -3.96082e-10 0)
(0.725 3.64147e-10 0)
(0.725 4.32944e-10 0)
(0.725 3.11529e-10 0)
(0.725 2.02784e-10 0)
(0.725 1.2502e-10 0)
(0.725 7.41152e-11 0)
(0.725 4.38225e-11 0)
(0.725 2.64617e-11 0)
(0.725 1.63604e-11 0)
(0.725 9.93524e-12 0)
(0.725 4.91374e-12 0)
(0.725 -3.557e-13 0)
(0.725 -7.46756e-12 0)
(0.725 -1.86076e-11 0)
(0.725 -3.7401e-11 0)
(0.725 -7.04095e-11 0)
(0.725 -1.27572e-10 0)
(0.725 -2.2157e-10 0)
(0.725 -3.79928e-10 0)
(0.725 -3.98041e-10 0)
(0.775 4.05568e-10 0)
(0.775 4.70883e-10 0)
(0.775 3.26195e-10 0)
(0.775 2.06571e-10 0)
(0.775 1.25336e-10 0)
(0.775 7.32603e-11 0)
(0.775 4.26756e-11 0)
(0.775 2.52999e-11 0)
(0.775 1.53025e-11 0)
(0.775 9.11267e-12 0)
(0.775 4.51034e-12 0)
(0.775 -6.4977e-14 0)
(0.775 -6.05053e-12 0)
(0.775 -1.53463e-11 0)
(0.775 -3.11128e-11 0)
(0.775 -5.92177e-11 0)
(0.775 -1.09191e-10 0)
(0.775 -1.93283e-10 0)
(0.775 -3.45667e-10 0)
(0.775 -3.6864e-10 0)
(0.825 3.87854e-10 0)
(0.825 4.37464e-10 0)
(0.825 2.85366e-10 0)
(0.825 1.73713e-10 0)
(0.825 1.03026e-10 0)
(0.825 5.90071e-11 0)
(0.825 3.38019e-11 0)
(0.825 1.97429e-11 0)
(0.825 1.17736e-11 0)
(0.825 6.93771e-12 0)
(0.825 3.44451e-12 0)
(0.825 6.69381e-14 0)
(0.825 -4.29273e-12 0)
(0.825 -1.1049e-11 0)
(0.825 -2.25827e-11 0)
(0.825 -4.34812e-11 0)
(0.825 -8.18423e-11 0)
(0.825 -1.48028e-10 0)
(0.825 -2.80751e-10 0)
(0.825 -3.08417e-10 0)
(0.875 3.09757e-10 0)
(0.875 3.34153e-10 0)
(0.875 1.97758e-10 0)
(0.875 1.14105e-10 0)
(0.875 6.58303e-11 0)
(0.875 3.67073e-11 0)
(0.875 2.06255e-11 0)
(0.875 1.18943e-11 0)
(0.875 7.02811e-12 0)
(0.875 4.12374e-12 0)
(0.875 2.06091e-12 0)
(0.875 8.07238e-14 0)
(0.875 -2.49124e-12 0)
(0.875 -6.49136e-12 0)
(0.875 -1.3338e-11 0)
(0.875 -2.59521e-11 0)
(0.875 -5.0097e-11 0)
(0.875 -9.25306e-11 0)
(0.875 -1.91725e-10 0)
(0.875 -2.21624e-10 0)
(0.925 1.83893e-10 0)
(0.925 1.8516e-10 0)
(0.925 9.29447e-11 0)
(0.925 4.93221e-11 0)
(0.925 2.7539e-11 0)
(0.925 1.4729e-11 0)
(0.925 8.05085e-12 0)
(0.925 4.58832e-12 0)
(0.925 2.70521e-12 0)
(0.925 1.60382e-12 0)
(0.925 8.27302e-13 0)
(0.925 6.40824e-14 0)
(0.925 -9.6672e-13 0)
(0.925 -2.58873e-12 0)
(0.925 -5.37294e-12 0)
(0.925 -1.06051e-11 0)
(0.925 -2.12276e-11 0)
(0.925 -3.98116e-11 0)
(0.925 -9.57618e-11 0)
(0.925 -1.20836e-10 0)
(0.975 5.68039e-11 0)
(0.975 5.30954e-11 0)
(0.975 2.11711e-11 0)
(0.975 9.83223e-12 0)
(0.975 5.27638e-12 0)
(0.975 2.62707e-12 0)
(0.975 1.37658e-12 0)
(0.975 7.76448e-13 0)
(0.975 4.58269e-13 0)
(0.975 2.74454e-13 0)
(0.975 1.45461e-13 0)
(0.975 9.57579e-15 0)
(0.975 -1.96803e-13 0)
(0.975 -5.28603e-13 0)
(0.975 -1.0703e-12 0)
(0.975 -2.10343e-12 0)
(0.975 -4.43134e-12 0)
(0.975 -8.32309e-12 0)
(0.975 -2.49255e-11 0)
(0.975 -3.48576e-11 0)
)
;

boundaryField
{
    top
    {
        type            fixedValue;
        value           uniform (1 0 0);
    }
    bottom
    {
        type            fixedValue;
        value           uniform (0 0 0);
    }
    inlet
    {
        type            zeroGradient;
    }
    outlet
    {
        type            zeroGradient;
    }
    frontAndBack
    {
        type            empty;
    }
}


// ************************************************************************* //
