/*--------------------------------*- C++ -*----------------------------------*\
  =========                 |
  \\      /  F ield         | OpenFOAM: The Open Source CFD Toolbox
   \\    /   O peration     | Website:  https://openfoam.org
    \\  /    A nd           | Version:  9
     \\/     M anipulation  |
\*---------------------------------------------------------------------------*/
FoamFile
{
    format      ascii;
    class       volScalarField;
    location    "2.4";
    object      p;
}
// * * * * * * * * * * * * * * * * * * * * * * * * * * * * * * * * * * * * * //

dimensions      [0 2 -2 0 0 0 0];

internalField   nonuniform List<scalar> 
400
(
9.93391e-09
1.64635e-08
1.59199e-08
1.51428e-08
1.38668e-08
1.23556e-08
1.07813e-08
9.17959e-09
7.57722e-09
5.98763e-09
4.40363e-09
2.81501e-09
1.21814e-09
-3.8629e-10
-1.99662e-09
-3.61593e-09
-5.20258e-09
-6.64239e-09
-8.4605e-09
-5.34505e-09
9.42108e-09
1.56848e-08
1.50928e-08
1.46471e-08
1.3566e-08
1.21742e-08
1.06763e-08
9.12092e-09
7.54574e-09
5.97188e-09
4.39693e-09
2.81413e-09
1.22262e-09
-3.73718e-10
-1.96723e-09
-3.55247e-09
-5.06798e-09
-6.33353e-09
-8.25893e-09
-5.20801e-09
9.52537e-09
1.57534e-08
1.46311e-08
1.43286e-08
1.3352e-08
1.20327e-08
1.05891e-08
9.06924e-09
7.51589e-09
5.95497e-09
4.38791e-09
2.81063e-09
1.22417e-09
-3.65493e-10
-1.94706e-09
-3.51305e-09
-4.99976e-09
-6.18417e-09
-8.52489e-09
-5.39967e-09
9.8911e-09
1.64401e-08
1.45339e-08
1.41942e-08
1.32363e-08
1.1941e-08
1.05258e-08
9.02781e-09
7.48902e-09
5.93738e-09
4.37662e-09
2.80413e-09
1.22181e-09
-3.63618e-10
-1.93991e-09
-3.50314e-09
-5.00019e-09
-6.19505e-09
-9.0628e-09
-5.69622e-09
1.02917e-08
1.73914e-08
1.46253e-08
1.41635e-08
1.31797e-08
1.18802e-08
1.04775e-08
8.99225e-09
7.46321e-09
5.91871e-09
4.36339e-09
2.79516e-09
1.21601e-09
-3.67255e-10
-1.94316e-09
-3.51361e-09
-5.04183e-09
-6.28317e-09
-9.66443e-09
-5.97803e-09
1.06615e-08
1.84193e-08
1.48103e-08
1.41891e-08
1.31584e-08
1.18381e-08
1.04377e-08
8.9596e-09
7.4376e-09
5.89904e-09
4.34864e-09
2.78421e-09
1.20744e-09
-3.75149e-10
-1.95353e-09
-3.53603e-09
-5.10311e-09
-6.39836e-09
-1.02163e-08
-6.20731e-09
1.09878e-08
1.94198e-08
1.50345e-08
1.4242e-08
1.31561e-08
1.18064e-08
1.04021e-08
8.92814e-09
7.41182e-09
5.87865e-09
4.33286e-09
2.77187e-09
1.19691e-09
-3.85801e-10
-1.96783e-09
-3.56297e-09
-5.16844e-09
-6.51016e-09
-1.06605e-08
-6.37744e-09
1.12575e-08
2.03076e-08
1.52541e-08
1.42966e-08
1.31579e-08
1.17775e-08
1.03672e-08
8.89633e-09
7.38552e-09
5.85773e-09
4.31651e-09
2.75882e-09
1.18549e-09
-3.97351e-10
-1.98242e-09
-3.58726e-09
-5.22365e-09
-6.59574e-09
-1.09569e-08
-6.48207e-09
1.14626e-08
2.10162e-08
1.54335e-08
1.43331e-08
1.3152e-08
1.17458e-08
1.03304e-08
8.86331e-09
7.3586e-09
5.83661e-09
4.30014e-09
2.74587e-09
1.1744e-09
-4.07778e-10
-1.9938e-09
-3.60252e-09
-5.25733e-09
-6.63832e-09
-1.10827e-08
-6.51946e-09
1.15969e-08
2.14971e-08
1.55481e-08
1.43389e-08
1.31318e-08
1.17085e-08
1.02911e-08
8.82923e-09
7.33152e-09
5.81582e-09
4.28436e-09
2.7338e-09
1.16482e-09
-4.15274e-10
-1.99903e-09
-3.60407e-09
-5.26162e-09
-6.62823e-09
-1.10296e-08
-6.49007e-09
1.16562e-08
2.17188e-08
1.55844e-08
1.43091e-08
1.30952e-08
1.16658e-08
1.02504e-08
8.79531e-09
7.30529e-09
5.79613e-09
4.26983e-09
2.72331e-09
1.15764e-09
-4.18542e-10
-1.99626e-09
-3.58937e-09
-5.23282e-09
-6.56244e-09
-1.08015e-08
-6.39673e-09
1.16363e-08
2.16658e-08
1.55396e-08
1.4246e-08
1.30452e-08
1.16211e-08
1.02112e-08
8.76368e-09
7.28135e-09
5.77852e-09
4.2572e-09
2.71491e-09
1.15339e-09
-4.17047e-10
-1.98501e-09
-3.55837e-09
-5.17144e-09
-6.44409e-09
-1.04135e-08
-6.24382e-09
1.15339e-08
2.13397e-08
1.54216e-08
1.4159e-08
1.29888e-08
1.15795e-08
1.01773e-08
8.73706e-09
7.26145e-09
5.76398e-09
4.24702e-09
2.70887e-09
1.15208e-09
-4.11147e-10
-1.96636e-09
-3.51365e-09
-5.08238e-09
-6.28226e-09
-9.88981e-09
-6.03738e-09
1.13477e-08
2.07618e-08
1.52503e-08
1.40639e-08
1.29365e-08
1.15481e-08
1.01534e-08
8.71833e-09
7.24728e-09
5.75347e-09
4.23971e-09
2.70515e-09
1.15319e-09
-4.02122e-10
-1.94295e-09
-3.46044e-09
-4.97479e-09
-6.09181e-09
-9.2647e-09
-5.78568e-09
1.10783e-08
1.9976e-08
1.50584e-08
1.39821e-08
1.29013e-08
1.15343e-08
1.01437e-08
8.70994e-09
7.24022e-09
5.74764e-09
4.23542e-09
2.70345e-09
1.15575e-09
-3.9205e-10
-1.91879e-09
-3.40627e-09
-4.86177e-09
-5.89322e-09
-8.58169e-09
-5.49956e-09
1.07332e-08
1.90528e-08
1.48886e-08
1.39387e-08
1.28964e-08
1.15445e-08
1.01513e-08
8.7134e-09
7.24094e-09
5.74671e-09
4.23405e-09
2.70318e-09
1.15844e-09
-3.83535e-10
-1.89877e-09
-3.36022e-09
-4.75938e-09
-5.71137e-09
-7.89379e-09
-5.19318e-09
1.03182e-08
1.80896e-08
1.47966e-08
1.39588e-08
1.29338e-08
1.15834e-08
1.01777e-08
8.72889e-09
7.24927e-09
5.75041e-09
4.23518e-09
2.70361e-09
1.15978e-09
-3.79419e-10
-1.88812e-09
-3.33217e-09
-4.68586e-09
-5.57631e-09
-7.26335e-09
-4.88178e-09
9.89371e-09
1.72766e-08
1.48756e-08
1.40821e-08
1.30292e-08
1.16566e-08
1.02242e-08
8.75651e-09
7.26493e-09
5.75842e-09
4.23838e-09
2.70389e-09
1.158e-09
-3.83119e-10
-1.89306e-09
-3.33419e-09
-4.66606e-09
-5.53628e-09
-6.79376e-09
-4.60709e-09
9.65312e-09
1.69699e-08
1.52986e-08
1.43744e-08
1.32101e-08
1.17741e-08
1.02942e-08
8.79721e-09
7.28832e-09
5.77097e-09
4.24371e-09
2.70361e-09
1.15183e-09
-3.97536e-10
-1.91997e-09
-3.38059e-09
-4.73294e-09
-5.6686e-09
-6.66756e-09
-4.49835e-09
9.9521e-09
1.74829e-08
1.60674e-08
1.48255e-08
1.34634e-08
1.19238e-08
1.03795e-08
8.84598e-09
7.3164e-09
5.78642e-09
4.25042e-09
2.70275e-09
1.14217e-09
-4.20465e-10
-1.96509e-09
-3.46531e-09
-4.88302e-09
-5.97055e-09
-6.99638e-09
-4.74889e-09
)
;

boundaryField
{
    top
    {
        type            zeroGradient;
    }
    bottom
    {
        type            zeroGradient;
    }
    inlet
    {
        type            fixedValue;
        value           uniform 0;
    }
    outlet
    {
        type            fixedValue;
        value           uniform 0;
    }
    frontAndBack
    {
        type            empty;
    }
}


// ************************************************************************* //
