/*--------------------------------*- C++ -*----------------------------------*\
  =========                 |
  \\      /  F ield         | OpenFOAM: The Open Source CFD Toolbox
   \\    /   O peration     | Website:  https://openfoam.org
    \\  /    A nd           | Version:  9
     \\/     M anipulation  |
\*---------------------------------------------------------------------------*/
FoamFile
{
    format      ascii;
    class       surfaceScalarField;
    location    "2.4";
    object      phi;
}
// * * * * * * * * * * * * * * * * * * * * * * * * * * * * * * * * * * * * * //

dimensions      [0 3 -1 0 0 0 0];

internalField   nonuniform List<scalar> 
760
(
1.24999e-06
-6.08419e-14
1.24999e-06
-5.06319e-14
1.24999e-06
-2.4119e-14
1.24999e-06
-1.37141e-14
1.24999e-06
-7.87224e-15
1.24999e-06
-4.3265e-15
1.24999e-06
-2.37104e-15
1.24999e-06
-1.24167e-15
1.24999e-06
-6.06211e-16
1.24999e-06
-2.76066e-16
1.24999e-06
-1.03653e-16
1.24999e-06
2.25089e-18
1.24999e-06
9.976e-17
1.24999e-06
2.57826e-16
1.24999e-06
6.10999e-16
1.24999e-06
1.5429e-15
1.24999e-06
3.6793e-15
1.24999e-06
8.22966e-15
1.24999e-06
2.59151e-14
2.99147e-14
3.74997e-06
-1.46464e-13
3.74997e-06
-1.37249e-13
3.74997e-06
-7.84717e-14
3.74997e-06
-4.67026e-14
3.74997e-06
-2.75606e-14
3.74997e-06
-1.56822e-14
3.74997e-06
-8.75997e-15
3.74997e-06
-4.71664e-15
3.74997e-06
-2.40004e-15
3.74997e-06
-1.12019e-15
3.74997e-06
-4.17752e-16
3.74997e-06
5.03757e-18
3.74997e-06
3.72228e-16
3.74997e-06
9.48461e-16
3.74997e-06
2.20763e-15
3.74997e-06
5.24342e-15
3.74997e-06
1.20177e-14
3.74997e-06
2.58051e-14
3.74997e-06
6.28907e-14
6.64644e-14
6.24995e-06
-2.22765e-13
6.24995e-06
-2.23492e-13
6.24995e-06
-1.42069e-13
6.24995e-06
-8.7976e-14
6.24995e-06
-5.33111e-14
6.24995e-06
-3.10696e-14
6.24995e-06
-1.7633e-14
6.24995e-06
-9.64495e-15
6.24995e-06
-5.0018e-15
6.24995e-06
-2.38011e-15
6.24995e-06
-9.19672e-16
6.24995e-06
-5.0906e-17
6.24995e-06
6.70247e-16
6.24995e-06
1.75449e-15
6.24995e-06
4.06336e-15
6.24995e-06
9.37998e-15
6.24995e-06
2.08277e-14
6.24995e-06
4.30816e-14
6.24995e-06
9.12548e-14
9.13228e-14
8.74993e-06
-2.79898e-13
8.74993e-06
-2.91525e-13
8.74993e-06
-1.98431e-13
8.74993e-06
-1.27325e-13
8.74993e-06
-7.90193e-14
8.74993e-06
-4.69674e-14
8.74993e-06
-2.70221e-14
8.74993e-06
-1.49568e-14
8.74993e-06
-7.85066e-15
8.74993e-06
-3.78943e-15
8.74993e-06
-1.51812e-15
8.74993e-06
-1.94048e-16
8.74993e-06
8.40463e-16
8.74993e-06
2.31044e-15
8.74993e-06
5.37446e-15
8.74993e-06
1.22403e-14
8.74993e-06
2.66519e-14
8.74993e-06
5.3294e-14
8.74993e-06
1.04225e-13
1.01082e-13
1.12499e-05
-3.12028e-13
1.12499e-05
-3.32247e-13
1.12499e-05
-2.37392e-13
1.12499e-05
-1.56876e-13
1.12499e-05
-9.94265e-14
1.12499e-05
-6.00885e-14
1.12499e-05
-3.49771e-14
1.12499e-05
-1.95318e-14
1.12499e-05
-1.03306e-14
1.12499e-05
-5.03417e-15
1.12499e-05
-2.08225e-15
1.12499e-05
-4.18583e-16
1.12499e-05
7.67903e-16
1.12499e-05
2.32451e-15
1.12499e-05
5.52748e-15
1.12499e-05
1.26545e-14
1.12499e-05
2.74295e-14
1.12499e-05
5.36554e-14
1.12499e-05
1.00054e-13
9.48378e-14
1.37499e-05
-3.17604e-13
1.37499e-05
-3.42561e-13
1.37499e-05
-2.53606e-13
1.37499e-05
-1.71652e-13
1.37499e-05
-1.10758e-13
1.37499e-05
-6.78841e-14
1.37499e-05
-3.98916e-14
1.37499e-05
-2.24097e-14
1.37499e-05
-1.18937e-14
1.37499e-05
-5.82037e-15
1.37499e-05
-2.47326e-15
1.37499e-05
-6.87978e-16
1.37499e-05
4.03947e-16
1.37499e-05
1.64691e-15
1.37499e-05
4.22986e-15
1.37499e-05
1.01415e-14
1.37499e-05
2.25768e-14
1.37499e-05
4.39728e-14
1.37499e-05
8.03413e-14
7.42812e-14
1.62499e-05
-2.9768e-13
1.62499e-05
-3.2309e-13
1.62499e-05
-2.45644e-13
1.62499e-05
-1.69458e-13
1.62499e-05
-1.11013e-13
1.62499e-05
-6.8838e-14
1.62499e-05
-4.07426e-14
1.62499e-05
-2.29483e-14
1.62499e-05
-1.21594e-14
1.62499e-05
-5.93312e-15
1.62499e-05
-2.5768e-15
1.62499e-05
-9.46938e-16
1.62499e-05
-2.29173e-16
1.62499e-05
2.89218e-16
1.62499e-05
1.51919e-15
1.62499e-05
4.87245e-15
1.62499e-05
1.26466e-14
1.62499e-05
2.58029e-14
1.62499e-05
4.82694e-14
4.22893e-14
1.87499e-05
-2.55476e-13
1.87499e-05
-2.77262e-13
1.87499e-05
-2.15113e-13
1.87499e-05
-1.50649e-13
1.87499e-05
-9.99838e-14
1.87499e-05
-6.26019e-14
1.87499e-05
-3.72192e-14
1.87499e-05
-2.09247e-14
1.87499e-05
-1.09826e-14
1.87499e-05
-5.28108e-15
1.87499e-05
-2.33034e-15
1.87499e-05
-1.13798e-15
1.87499e-05
-1.04976e-15
1.87499e-05
-1.5949e-15
1.87499e-05
-2.28473e-15
1.87499e-05
-2.48234e-15
1.87499e-05
-9.99844e-16
1.87499e-05
1.71007e-15
1.87499e-05
7.95749e-15
2.58434e-15
2.12499e-05
-1.95681e-13
2.12499e-05
-2.10453e-13
2.12499e-05
-1.65996e-13
2.12499e-05
-1.17723e-13
2.12499e-05
-7.91153e-14
2.12499e-05
-4.99665e-14
2.12499e-05
-2.97461e-14
2.12499e-05
-1.65651e-14
2.12499e-05
-8.48154e-15
2.12499e-05
-3.91806e-15
2.12499e-05
-1.74061e-15
2.12499e-05
-1.21785e-15
2.12499e-05
-1.93916e-15
2.12499e-05
-3.75028e-15
2.12499e-05
-6.6691e-15
2.12499e-05
-1.09284e-14
2.12499e-05
-1.6546e-14
2.12499e-05
-2.52389e-14
2.12499e-05
-3.61683e-14
-4.08114e-14
2.37499e-05
-1.24117e-13
2.37499e-05
-1.29468e-13
2.37499e-05
-1.04031e-13
2.37499e-05
-7.48738e-14
2.37499e-05
-5.12153e-14
2.37499e-05
-3.27035e-14
2.37499e-05
-1.93982e-14
2.37499e-05
-1.05044e-14
2.37499e-05
-5.01917e-15
2.37499e-05
-2.03741e-15
2.37499e-05
-8.8648e-16
2.37499e-05
-1.1695e-15
2.37499e-05
-2.76743e-15
2.37499e-05
-5.87253e-15
2.37499e-05
-1.10268e-14
2.37499e-05
-1.93323e-14
2.37499e-05
-3.20093e-14
2.37499e-05
-5.18823e-14
2.37499e-05
-7.97077e-14
-8.38199e-14
2.62499e-05
-4.7335e-14
2.62499e-05
-4.20711e-14
2.62499e-05
-3.6162e-14
2.62499e-05
-2.7466e-14
2.62499e-05
-2.00572e-14
2.62499e-05
-1.32893e-14
2.62499e-05
-7.72472e-15
2.62499e-05
-3.67752e-15
2.62499e-05
-1.14032e-15
2.62499e-05
6.12142e-17
2.62499e-05
9.37983e-17
2.62499e-05
-1.00614e-15
2.62499e-05
-3.41703e-15
2.62499e-05
-7.65996e-15
2.62499e-05
-1.47548e-14
2.62499e-05
-2.65846e-14
2.62499e-05
-4.54887e-14
2.62499e-05
-7.52528e-14
2.62499e-05
-1.18566e-13
-1.22576e-13
2.87499e-05
2.77517e-14
2.87499e-05
4.34396e-14
2.87499e-05
3.00175e-14
2.87499e-05
1.85385e-14
2.87499e-05
1.01099e-14
2.87499e-05
5.46182e-15
2.87499e-05
3.50272e-15
2.87499e-05
2.84253e-15
2.87499e-05
2.52692e-15
2.87499e-05
2.02815e-15
2.87499e-05
1.02977e-15
2.87499e-05
-7.66766e-16
2.87499e-05
-3.80054e-15
2.87499e-05
-8.85935e-15
2.87499e-05
-1.73384e-14
2.87499e-05
-3.17385e-14
2.87499e-05
-5.53591e-14
2.87499e-05
-9.28054e-14
2.87499e-05
-1.49153e-13
-1.53621e-13
3.12499e-05
9.42162e-14
3.12499e-05
1.18661e-13
3.12499e-05
8.6873e-14
3.12499e-05
5.72264e-14
3.12499e-05
3.51324e-14
3.12499e-05
2.08284e-14
3.12499e-05
1.25906e-14
3.12499e-05
8.03904e-15
3.12499e-05
5.39178e-15
3.12499e-05
3.53384e-15
3.12499e-05
1.75525e-15
3.12499e-05
-5.04368e-16
3.12499e-05
-3.87083e-15
3.12499e-05
-9.3013e-15
3.12499e-05
-1.84197e-14
3.12499e-05
-3.41204e-14
3.12499e-05
-6.04268e-14
3.12499e-05
-1.02597e-13
3.12499e-05
-1.68542e-13
-1.74071e-13
3.37499e-05
1.45586e-13
3.37499e-05
1.75611e-13
3.37499e-05
1.27415e-13
3.37499e-05
8.34809e-14
3.37499e-05
5.15689e-14
3.37499e-05
3.06469e-14
3.37499e-05
1.82342e-14
3.37499e-05
1.11519e-14
3.37499e-05
7.02214e-15
3.37499e-05
4.34017e-15
3.37499e-05
2.14666e-15
3.37499e-05
-2.70342e-16
3.37499e-05
-3.62461e-15
3.37499e-05
-8.92373e-15
3.37499e-05
-1.78469e-14
3.37499e-05
-3.34122e-14
3.37499e-05
-6.00553e-14
3.37499e-05
-1.03442e-13
3.37499e-05
-1.7464e-13
-1.81787e-13
3.62499e-05
1.76158e-13
3.62499e-05
2.073e-13
3.62499e-05
1.46202e-13
3.62499e-05
9.37939e-14
3.62499e-05
5.7347e-14
3.62499e-05
3.37447e-14
3.62499e-05
1.97996e-14
3.62499e-05
1.1845e-14
3.62499e-05
7.24426e-15
3.62499e-05
4.35709e-15
3.62499e-05
2.15439e-15
3.62499e-05
-9.99875e-17
3.62499e-05
-3.10067e-15
3.62499e-05
-7.78364e-15
3.62499e-05
-1.57035e-14
3.62499e-05
-2.97108e-14
3.62499e-05
-5.42674e-14
3.62499e-05
-9.50775e-14
3.62499e-05
-1.66343e-13
-1.75514e-13
3.87499e-05
1.81902e-13
3.87499e-05
2.08802e-13
3.87499e-05
1.40405e-13
3.87499e-05
8.72161e-14
3.87499e-05
5.23319e-14
3.87499e-05
3.02948e-14
3.87499e-05
1.75067e-14
3.87499e-05
1.03072e-14
3.87499e-05
6.19413e-15
3.87499e-05
3.67099e-15
3.87499e-05
1.81796e-15
3.87499e-05
-3.82414e-18
3.87499e-05
-2.37565e-15
3.87499e-05
-6.05698e-15
3.87499e-05
-1.23179e-14
3.87499e-05
-2.35602e-14
3.87499e-05
-4.3837e-14
3.87499e-05
-7.83409e-14
3.87499e-05
-1.43855e-13
-1.55147e-13
4.12499e-05
1.60758e-13
4.12499e-05
1.78344e-13
4.12499e-05
1.11414e-13
4.12499e-05
6.61875e-14
4.12499e-05
3.87753e-14
4.12499e-05
2.19501e-14
4.12499e-05
1.24708e-14
4.12499e-05
7.244e-15
4.12499e-05
4.30409e-15
4.12499e-05
2.53229e-15
4.12499e-05
1.2601e-15
4.12499e-05
3.17453e-17
4.12499e-05
-1.55871e-15
4.12499e-05
-4.02816e-15
4.12499e-05
-8.25139e-15
4.12499e-05
-1.59594e-14
4.12499e-05
-3.03555e-14
4.12499e-05
-5.54319e-14
4.12499e-05
-1.09026e-13
-1.2197e-13
4.37499e-05
1.1504e-13
4.37499e-05
1.20395e-13
4.37499e-05
6.65261e-14
4.37499e-05
3.7342e-14
4.37499e-05
2.12972e-14
4.37499e-05
1.17086e-14
4.37499e-05
6.51964e-15
4.37499e-05
3.74567e-15
4.37499e-05
2.21145e-15
4.37499e-05
1.30197e-15
4.37499e-05
6.5704e-16
4.37499e-05
3.31933e-17
4.37499e-05
-7.86476e-16
4.37499e-05
-2.06616e-15
4.37499e-05
-4.26173e-15
4.37499e-05
-8.3336e-15
4.37499e-05
-1.63019e-14
4.37499e-05
-3.02676e-14
4.37499e-05
-6.63409e-14
-7.93818e-14
4.625e-05
5.08391e-14
4.625e-05
4.87442e-14
4.625e-05
2.17482e-14
4.625e-05
1.11861e-14
4.625e-05
6.26475e-15
4.625e-05
3.28538e-15
4.625e-05
1.77976e-15
4.625e-05
1.01412e-15
4.625e-05
6.00162e-16
4.625e-05
3.59862e-16
4.625e-05
1.9149e-16
4.625e-05
2.27834e-17
4.625e-05
-2.14412e-16
4.625e-05
-5.89899e-16
4.625e-05
-1.2257e-15
4.625e-05
-2.42322e-15
4.625e-05
-4.94069e-15
4.625e-05
-9.13942e-15
4.625e-05
-2.42623e-14
-3.28584e-14
4.875e-05
4.875e-05
4.875e-05
4.875e-05
4.875e-05
4.875e-05
4.875e-05
4.875e-05
4.875e-05
4.875e-05
4.875e-05
4.875e-05
4.875e-05
4.875e-05
4.875e-05
4.875e-05
4.875e-05
4.875e-05
4.875e-05
)
;

boundaryField
{
    top
    {
        type            calculated;
        value           uniform 0;
    }
    bottom
    {
        type            calculated;
        value           uniform 0;
    }
    inlet
    {
        type            calculated;
        value           nonuniform List<scalar> 
20
(
-1.24999e-06
-3.74997e-06
-6.24995e-06
-8.74993e-06
-1.12499e-05
-1.37499e-05
-1.62499e-05
-1.87499e-05
-2.12499e-05
-2.37499e-05
-2.62499e-05
-2.87499e-05
-3.12499e-05
-3.37499e-05
-3.62499e-05
-3.87499e-05
-4.12499e-05
-4.37499e-05
-4.625e-05
-4.875e-05
)
;
    }
    outlet
    {
        type            calculated;
        value           nonuniform List<scalar> 
20
(
1.24999e-06
3.74997e-06
6.24995e-06
8.74993e-06
1.12499e-05
1.37499e-05
1.62499e-05
1.87499e-05
2.12499e-05
2.37499e-05
2.62499e-05
2.87499e-05
3.12499e-05
3.37499e-05
3.62499e-05
3.87499e-05
4.12499e-05
4.37499e-05
4.625e-05
4.875e-05
)
;
    }
    frontAndBack
    {
        type            empty;
        value           nonuniform List<scalar> 0();
    }
}


// ************************************************************************* //
