/*--------------------------------*- C++ -*----------------------------------*\
  =========                 |
  \\      /  F ield         | OpenFOAM: The Open Source CFD Toolbox
   \\    /   O peration     | Website:  https://openfoam.org
    \\  /    A nd           | Version:  9
     \\/     M anipulation  |
\*---------------------------------------------------------------------------*/
FoamFile
{
    format      ascii;
    class       volVectorField;
    location    "2.4";
    object      U;
}
// * * * * * * * * * * * * * * * * * * * * * * * * * * * * * * * * * * * * * //

dimensions      [0 1 -1 0 0 0 0];

internalField   nonuniform List<vector> 
400
(
(0.0249998 -2.97714e-10 0)
(0.0249998 -2.381e-10 0)
(0.0249998 -9.99976e-11 0)
(0.0249998 -5.32613e-11 0)
(0.0249998 -2.93693e-11 0)
(0.0249998 -1.55547e-11 0)
(0.0249998 -8.38179e-12 0)
(0.0249998 -4.19283e-12 0)
(0.0249998 -1.88999e-12 0)
(0.0249998 -8.07239e-13 0)
(0.0249998 -2.9201e-13 0)
(0.0249998 4.28365e-14 0)
(0.0249998 3.90482e-13 0)
(0.0249998 9.80125e-13 0)
(0.0249998 2.33443e-12 0)
(0.0249998 6.20365e-12 0)
(0.0249998 1.54903e-11 0)
(0.0249998 3.69659e-11 0)
(0.0249998 1.30614e-10 0)
(0.0249998 1.53171e-10 0)
(0.0749994 -1.02516e-09 0)
(0.0749994 -9.11356e-10 0)
(0.0749994 -4.75704e-10 0)
(0.0749994 -2.73032e-10 0)
(0.0749994 -1.57676e-10 0)
(0.0749994 -8.76544e-11 0)
(0.0749994 -4.81903e-11 0)
(0.0749994 -2.54888e-11 0)
(0.0749994 -1.2642e-11 0)
(0.0749994 -5.73935e-12 0)
(0.0749994 -2.04308e-12 0)
(0.0749994 1.93273e-13 0)
(0.0749994 2.20971e-12 0)
(0.0749994 5.49239e-12 0)
(0.0749994 1.28529e-11 0)
(0.0749994 3.14332e-11 0)
(0.0749994 7.3907e-11 0)
(0.0749994 1.6449e-10 0)
(0.0749994 4.47037e-10 0)
(0.0749994 4.90766e-10 0)
(0.124999 -1.86447e-09 0)
(0.124999 -1.81066e-09 0)
(0.124999 -1.09363e-09 0)
(0.124999 -6.61705e-10 0)
(0.124999 -3.94701e-10 0)
(0.124999 -2.26968e-10 0)
(0.124999 -1.27639e-10 0)
(0.124999 -6.91715e-11 0)
(0.124999 -3.54944e-11 0)
(0.124999 -1.67113e-11 0)
(0.124999 -6.31656e-12 0)
(0.124999 -5.52339e-14 0)
(0.124999 5.3339e-12 0)
(0.124999 1.36773e-11 0)
(0.124999 3.16783e-11 0)
(0.124999 7.39852e-11 0)
(0.124999 1.66674e-10 0)
(0.124999 3.51685e-10 0)
(0.124999 7.91219e-10 0)
(0.124999 8.13757e-10 0)
(0.174999 -2.56543e-09 0)
(0.174999 -2.62378e-09 0)
(0.174999 -1.73011e-09 0)
(0.174999 -1.08978e-09 0)
(0.174999 -6.67588e-10 0)
(0.174999 -3.92548e-10 0)
(0.174999 -2.24114e-10 0)
(0.174999 -1.23287e-10 0)
(0.174999 -6.43488e-11 0)
(0.174999 -3.08501e-11 0)
(0.174999 -1.21115e-11 0)
(0.174999 -1.01492e-12 0)
(0.174999 8.02271e-12 0)
(0.174999 2.13285e-11 0)
(0.174999 4.9326e-11 0)
(0.174999 1.12698e-10 0)
(0.174999 2.47128e-10 0)
(0.174999 5.01637e-10 0)
(0.174999 1.01304e-09 0)
(0.174999 9.99483e-10 0)
(0.224998 -3.02513e-09 0)
(0.224998 -3.18788e-09 0)
(0.224998 -2.22899e-09 0)
(0.224998 -1.45196e-09 0)
(0.224998 -9.10422e-10 0)
(0.224998 -5.45566e-10 0)
(0.224998 -3.15678e-10 0)
(0.224998 -1.75555e-10 0)
(0.224998 -9.25773e-11 0)
(0.224998 -4.49479e-11 0)
(0.224998 -1.82927e-11 0)
(0.224998 -2.91635e-12 0)
(0.224998 8.72072e-12 0)
(0.224998 2.47546e-11 0)
(0.224998 5.78369e-11 0)
(0.224998 1.31264e-10 0)
(0.224998 2.83751e-10 0)
(0.224998 5.59217e-10 0)
(0.224998 1.06008e-09 0)
(0.224998 1.01801e-09 0)
(0.274998 -3.21397e-09 0)
(0.274998 -3.44662e-09 0)
(0.274998 -2.5134e-09 0)
(0.274998 -1.68265e-09 0)
(0.274998 -1.07646e-09 0)
(0.274998 -6.55377e-10 0)
(0.274998 -3.83444e-10 0)
(0.274998 -2.14907e-10 0)
(0.274998 -1.13999e-10 0)
(0.274998 -5.5763e-11 0)
(0.274998 -2.34004e-11 0)
(0.274998 -5.51404e-12 0)
(0.274998 6.55525e-12 0)
(0.274998 2.15854e-11 0)
(0.274998 5.23901e-11 0)
(0.274998 1.21081e-10 0)
(0.274998 2.63275e-10 0)
(0.274998 5.10838e-10 0)
(0.274998 9.35205e-10 0)
(0.274998 8.78036e-10 0)
(0.324998 -3.13663e-09 0)
(0.324998 -3.39604e-09 0)
(0.324998 -2.55431e-09 0)
(0.324998 -1.74784e-09 0)
(0.324998 -1.13722e-09 0)
(0.324998 -7.01542e-10 0)
(0.324998 -4.14024e-10 0)
(0.324998 -2.33133e-10 0)
(0.324998 -1.23838e-10 0)
(0.324998 -6.0664e-11 0)
(0.324998 -2.61118e-11 0)
(0.324998 -8.31458e-12 0)
(0.324998 1.41633e-12 0)
(0.324998 1.11662e-11 0)
(0.324998 3.18443e-11 0)
(0.324998 8.10307e-11 0)
(0.324998 1.86841e-10 0)
(0.324998 3.66328e-10 0)
(0.324998 6.67592e-10 0)
(0.324998 6.06906e-10 0)
(0.374998 -2.81602e-09 0)
(0.374998 -3.0591e-09 0)
(0.374998 -2.355e-09 0)
(0.374998 -1.63934e-09 0)
(0.374998 -1.08188e-09 0)
(0.374998 -6.7465e-10 0)
(0.374998 -4.00579e-10 0)
(0.374998 -2.25746e-10 0)
(0.374998 -1.19342e-10 0)
(0.374998 -5.803e-11 0)
(0.374998 -2.54784e-11 0)
(0.374998 -1.07031e-11 0)
(0.374998 -6.12153e-12 0)
(0.374998 -5.58355e-12 0)
(0.374998 -1.8129e-12 0)
(0.374998 1.57799e-11 0)
(0.374998 6.49499e-11 0)
(0.374998 1.48048e-10 0)
(0.374998 2.95515e-10 0)
(0.374998 2.38706e-10 0)
(0.424997 -2.29278e-09 0)
(0.424997 -2.48127e-09 0)
(0.424997 -1.94481e-09 0)
(0.424997 -1.37238e-09 0)
(0.424997 -9.1711e-10 0)
(0.424997 -5.77109e-10 0)
(0.424997 -3.43735e-10 0)
(0.424997 -1.92761e-10 0)
(0.424997 -1.00354e-10 0)
(0.424997 -4.76459e-11 0)
(0.424997 -2.11907e-11 0)
(0.424997 -1.21362e-11 0)
(0.424997 -1.49906e-11 0)
(0.424997 -2.64957e-11 0)
(0.424997 -4.41745e-11 0)
(0.424997 -6.58962e-11 0)
(0.424997 -8.57319e-11 0)
(0.424997 -1.14811e-10 0)
(0.424997 -1.37214e-10 0)
(0.424997 -1.86953e-10 0)
(0.474997 -1.62032e-09 0)
(0.474997 -1.72462e-09 0)
(0.474997 -1.37374e-09 0)
(0.474997 -9.81591e-10 0)
(0.474997 -6.65009e-10 0)
(0.474997 -4.22255e-10 0)
(0.474997 -2.51303e-10 0)
(0.474997 -1.38663e-10 0)
(0.474997 -6.93771e-11 0)
(0.474997 -3.07932e-11 0)
(0.474997 -1.36877e-11 0)
(0.474997 -1.2291e-11 0)
(0.474997 -2.38844e-11 0)
(0.474997 -4.86398e-11 0)
(0.474997 -8.93933e-11 0)
(0.474997 -1.52926e-10 0)
(0.474997 -2.4556e-10 0)
(0.474997 -3.90273e-10 0)
(0.474997 -5.85732e-10 0)
(0.474997 -6.2895e-10 0)
(0.524997 -8.61555e-10 0)
(0.524997 -8.63187e-10 0)
(0.524997 -7.06579e-10 0)
(0.524997 -5.16122e-10 0)
(0.524997 -3.59584e-10 0)
(0.524997 -2.32132e-10 0)
(0.524997 -1.36942e-10 0)
(0.524997 -7.16393e-11 0)
(0.524997 -3.11529e-11 0)
(0.524997 -1.00506e-11 0)
(0.524997 -4.10651e-12 0)
(0.524997 -1.11503e-11 0)
(0.524997 -3.15153e-11 0)
(0.524997 -6.88647e-11 0)
(0.524997 -1.31192e-10 0)
(0.524997 -2.33724e-10 0)
(0.524997 -3.94572e-10 0)
(0.524997 -6.47055e-10 0)
(0.524997 -1.00694e-09 0)
(0.524997 -1.04696e-09 0)
(0.574997 -8.47122e-11 0)
(0.574997 2.16138e-11 0)
(0.574997 -1.74756e-11 0)
(0.574997 -3.41244e-11 0)
(0.574997 -4.2272e-11 0)
(0.574997 -3.41952e-11 0)
(0.574997 -1.79525e-11 0)
(0.574997 -2.18382e-12 0)
(0.574997 8.17315e-12 0)
(0.574997 1.11728e-11 0)
(0.574997 5.92626e-12 0)
(0.574997 -8.99856e-12 0)
(0.574997 -3.68266e-11 0)
(0.574997 -8.42985e-11 0)
(0.574997 -1.63796e-10 0)
(0.574997 -2.97707e-10 0)
(0.574997 -5.14713e-10 0)
(0.574997 -8.57091e-10 0)
(0.574997 -1.36193e-09 0)
(0.574997 -1.4039e-09 0)
(0.624998 6.39904e-10 0)
(0.624998 8.45029e-10 0)
(0.624998 6.1584e-10 0)
(0.624998 4.03295e-10 0)
(0.624998 2.43422e-10 0)
(0.624998 1.42737e-10 0)
(0.624998 8.75558e-11 0)
(0.624998 5.87465e-11 0)
(0.624998 4.2194e-11 0)
(0.624998 2.92966e-11 0)
(0.624998 1.46288e-11 0)
(0.624998 -6.33404e-12 0)
(0.624998 -3.91329e-11 0)
(0.624998 -9.27604e-11 0)
(0.624998 -1.82706e-10 0)
(0.624998 -3.36541e-10 0)
(0.624998 -5.91549e-10 0)
(0.624998 -9.97527e-10 0)
(0.624998 -1.6177e-09 0)
(0.624998 -1.66761e-09 0)
(0.674998 1.24438e-09 0)
(0.674998 1.52381e-09 0)
(0.674998 1.11834e-09 0)
(0.674998 7.3909e-10 0)
(0.674998 4.57924e-10 0)
(0.674998 2.73095e-10 0)
(0.674998 1.63825e-10 0)
(0.674998 1.01788e-10 0)
(0.674998 6.55047e-11 0)
(0.674998 4.13136e-11 0)
(0.674998 2.0459e-11 0)
(0.674998 -3.72152e-12 0)
(0.674998 -3.81856e-11 0)
(0.674998 -9.30572e-11 0)
(0.674998 -1.85287e-10 0)
(0.674998 -3.45111e-10 0)
(0.674998 -6.15675e-10 0)
(0.674998 -1.05236e-09 0)
(0.674998 -1.74877e-09 0)
(0.674998 -1.81263e-09 0)
(0.724998 1.66648e-09 0)
(0.724998 1.98132e-09 0)
(0.724998 1.42568e-09 0)
(0.724998 9.28015e-10 0)
(0.724998 5.72137e-10 0)
(0.724998 3.39179e-10 0)
(0.724998 2.00548e-10 0)
(0.724998 1.21099e-10 0)
(0.724998 7.4871e-11 0)
(0.724998 4.5467e-11 0)
(0.724998 2.24866e-11 0)
(0.724998 -1.62821e-12 0)
(0.724998 -3.41747e-11 0)
(0.724998 -8.51562e-11 0)
(0.724998 -1.71162e-10 0)
(0.724998 -3.22222e-10 0)
(0.724998 -5.83819e-10 0)
(0.724998 -1.01399e-09 0)
(0.724998 -1.7387e-09 0)
(0.724998 -1.82159e-09 0)
(0.774998 1.85604e-09 0)
(0.774998 2.15495e-09 0)
(0.774998 1.49279e-09 0)
(0.774998 9.45348e-10 0)
(0.774998 5.73583e-10 0)
(0.774998 3.35267e-10 0)
(0.774998 1.953e-10 0)
(0.774998 1.15782e-10 0)
(0.774998 7.003e-11 0)
(0.774998 4.17029e-11 0)
(0.774998 2.06408e-11 0)
(0.774998 -2.97604e-13 0)
(0.774998 -2.769e-11 0)
(0.774998 -7.02315e-11 0)
(0.774998 -1.42385e-10 0)
(0.774998 -2.71004e-10 0)
(0.774998 -4.99702e-10 0)
(0.774998 -8.84543e-10 0)
(0.774998 -1.58191e-09 0)
(0.774998 -1.68704e-09 0)
(0.824999 1.77497e-09 0)
(0.824999 2.00201e-09 0)
(0.824999 1.30595e-09 0)
(0.824999 7.94981e-10 0)
(0.824999 4.71486e-10 0)
(0.824999 2.70041e-10 0)
(0.824999 1.54692e-10 0)
(0.824999 9.03524e-11 0)
(0.824999 5.38809e-11 0)
(0.824999 3.17497e-11 0)
(0.824999 1.57636e-11 0)
(0.824999 3.0654e-13 0)
(0.824999 -1.96456e-11 0)
(0.824999 -5.05657e-11 0)
(0.824999 -1.03349e-10 0)
(0.824999 -1.98989e-10 0)
(0.824999 -3.74545e-10 0)
(0.824999 -6.77439e-10 0)
(0.824999 -1.28483e-09 0)
(0.824999 -1.41144e-09 0)
(0.874999 1.41757e-09 0)
(0.874999 1.52922e-09 0)
(0.874999 9.05016e-10 0)
(0.874999 5.22186e-10 0)
(0.874999 3.01263e-10 0)
(0.874999 1.67985e-10 0)
(0.874999 9.43892e-11 0)
(0.874999 5.44321e-11 0)
(0.874999 3.21622e-11 0)
(0.874999 1.88711e-11 0)
(0.874999 9.43178e-12 0)
(0.874999 3.69874e-13 0)
(0.874999 -1.14007e-11 0)
(0.874999 -2.97066e-11 0)
(0.874999 -6.10391e-11 0)
(0.874999 -1.18766e-10 0)
(0.874999 -2.29263e-10 0)
(0.874999 -4.23456e-10 0)
(0.874999 -8.7741e-10 0)
(0.874999 -1.01424e-09 0)
(0.924999 8.41558e-10 0)
(0.924999 8.47351e-10 0)
(0.924999 4.25323e-10 0)
(0.924999 2.25686e-10 0)
(0.924999 1.26002e-10 0)
(0.924999 6.73808e-11 0)
(0.924999 3.68233e-11 0)
(0.924999 2.09829e-11 0)
(0.924999 1.23699e-11 0)
(0.924999 7.33395e-12 0)
(0.924999 3.78433e-12 0)
(0.924999 2.93811e-13 0)
(0.924999 -4.41985e-12 0)
(0.924999 -1.18375e-11 0)
(0.924999 -2.45733e-11 0)
(0.924999 -4.85128e-11 0)
(0.924999 -9.71232e-11 0)
(0.924999 -1.82167e-10 0)
(0.924999 -4.38228e-10 0)
(0.924999 -5.52987e-10 0)
(0.975 2.59952e-10 0)
(0.975 2.42974e-10 0)
(0.975 9.68623e-11 0)
(0.975 4.49685e-11 0)
(0.975 2.41228e-11 0)
(0.975 1.20005e-11 0)
(0.975 6.28144e-12 0)
(0.975 3.53996e-12 0)
(0.975 2.08843e-12 0)
(0.975 1.25111e-12 0)
(0.975 6.63972e-13 0)
(0.975 4.41424e-14 0)
(0.975 -8.969e-13 0)
(0.975 -2.41071e-12 0)
(0.975 -4.88459e-12 0)
(0.975 -9.60812e-12 0)
(0.975 -2.02592e-11 0)
(0.975 -3.80657e-11 0)
(0.975 -1.14055e-10 0)
(0.975 -1.59517e-10 0)
)
;

boundaryField
{
    top
    {
        type            fixedValue;
        value           uniform (1 0 0);
    }
    bottom
    {
        type            fixedValue;
        value           uniform (0 0 0);
    }
    inlet
    {
        type            zeroGradient;
    }
    outlet
    {
        type            zeroGradient;
    }
    frontAndBack
    {
        type            empty;
    }
}


// ************************************************************************* //
