/*--------------------------------*- C++ -*----------------------------------*\
  =========                 |
  \\      /  F ield         | OpenFOAM: The Open Source CFD Toolbox
   \\    /   O peration     | Website:  https://openfoam.org
    \\  /    A nd           | Version:  9
     \\/     M anipulation  |
\*---------------------------------------------------------------------------*/
FoamFile
{
    format      ascii;
    class       volScalarField;
    location    "3.9";
    object      p;
}
// * * * * * * * * * * * * * * * * * * * * * * * * * * * * * * * * * * * * * //

dimensions      [0 2 -2 0 0 0 0];

internalField   nonuniform List<scalar> 
400
(
1.03641e-10
1.71762e-10
1.66084e-10
1.57981e-10
1.44672e-10
1.28908e-10
1.12485e-10
9.57752e-11
7.90576e-11
6.24732e-11
4.59467e-11
2.9372e-11
1.27112e-11
-4.02834e-12
-2.08292e-11
-3.77229e-11
-5.42741e-11
-6.929e-11
-8.82656e-11
-5.57649e-11
9.82987e-11
1.63656e-10
1.57483e-10
1.5283e-10
1.41549e-10
1.27025e-10
1.11395e-10
9.51658e-11
7.87304e-11
6.23092e-11
4.5877e-11
2.93628e-11
1.27577e-11
-3.89786e-12
-2.05244e-11
-3.70654e-11
-5.28798e-11
-6.60879e-11
-8.61737e-11
-5.43399e-11
9.93834e-11
1.64365e-10
1.52656e-10
1.495e-10
1.39311e-10
1.25546e-10
1.10483e-10
9.46254e-11
7.84185e-11
6.21327e-11
4.57828e-11
2.93263e-11
1.27741e-11
-3.81182e-12
-2.03133e-11
-3.66523e-11
-5.21643e-11
-6.45231e-11
-8.89443e-11
-5.63373e-11
1.03198e-10
1.71527e-10
1.51639e-10
1.48095e-10
1.38101e-10
1.24587e-10
1.09822e-10
9.41927e-11
7.81379e-11
6.19491e-11
4.56649e-11
2.92585e-11
1.27495e-11
-3.79208e-12
-2.02384e-11
-3.65483e-11
-5.21675e-11
-6.4634e-11
-9.45549e-11
-5.94308e-11
1.07378e-10
1.81453e-10
1.52593e-10
1.47775e-10
1.37511e-10
1.23953e-10
1.09319e-10
9.38217e-11
7.78685e-11
6.17541e-11
4.55269e-11
2.91649e-11
1.26892e-11
-3.82999e-12
-2.02721e-11
-3.66575e-11
-5.26021e-11
-6.55536e-11
-1.00832e-10
-6.23711e-11
1.11236e-10
1.92178e-10
1.54523e-10
1.48043e-10
1.37289e-10
1.23514e-10
1.08903e-10
9.34811e-11
7.76011e-11
6.15487e-11
4.5373e-11
2.90507e-11
1.25998e-11
-3.91227e-12
-2.03804e-11
-3.68915e-11
-5.32417e-11
-6.67558e-11
-1.0659e-10
-6.47633e-11
1.1464e-10
2.02617e-10
1.56863e-10
1.48594e-10
1.37265e-10
1.23183e-10
1.08532e-10
9.31528e-11
7.73321e-11
6.1336e-11
4.52083e-11
2.89221e-11
1.24901e-11
-4.0233e-12
-2.05295e-11
-3.71726e-11
-5.39232e-11
-6.79222e-11
-1.11225e-10
-6.65385e-11
1.17455e-10
2.11879e-10
1.59154e-10
1.49164e-10
1.37284e-10
1.22882e-10
1.08167e-10
9.28207e-11
7.70576e-11
6.11178e-11
4.50377e-11
2.8786e-11
1.23712e-11
-4.14364e-12
-2.06815e-11
-3.74258e-11
-5.44993e-11
-6.88149e-11
-1.14317e-10
-6.763e-11
1.19595e-10
2.19272e-10
1.61025e-10
1.49545e-10
1.37224e-10
1.22551e-10
1.07784e-10
9.24763e-11
7.67769e-11
6.08974e-11
4.4867e-11
2.86507e-11
1.22555e-11
-4.25216e-12
-2.08001e-11
-3.75849e-11
-5.48506e-11
-6.92591e-11
-1.1563e-10
-6.80201e-11
1.20996e-10
2.2429e-10
1.62221e-10
1.49605e-10
1.37012e-10
1.22162e-10
1.07374e-10
9.21207e-11
7.64945e-11
6.06805e-11
4.47022e-11
2.85248e-11
1.21557e-11
-4.33026e-12
-2.08546e-11
-3.76008e-11
-5.48954e-11
-6.91539e-11
-1.15075e-10
-6.77134e-11
1.21614e-10
2.26603e-10
1.626e-10
1.49294e-10
1.3663e-10
1.21717e-10
1.06949e-10
9.17667e-11
7.62208e-11
6.04753e-11
4.45505e-11
2.84155e-11
1.2081e-11
-4.36437e-12
-2.08256e-11
-3.74473e-11
-5.45949e-11
-6.84673e-11
-1.12696e-10
-6.67396e-11
1.21408e-10
2.2605e-10
1.62131e-10
1.48637e-10
1.36108e-10
1.21249e-10
1.0654e-10
9.14369e-11
7.5971e-11
6.02916e-11
4.44188e-11
2.83279e-11
1.20364e-11
-4.34822e-12
-2.07082e-11
-3.71237e-11
-5.39544e-11
-6.72325e-11
-1.08647e-10
-6.51443e-11
1.20339e-10
2.22647e-10
1.609e-10
1.47729e-10
1.3552e-10
1.20816e-10
1.06187e-10
9.11593e-11
7.57635e-11
6.01402e-11
4.43126e-11
2.82646e-11
1.20227e-11
-4.28633e-12
-2.05136e-11
-3.6657e-11
-5.30251e-11
-6.55442e-11
-1.03184e-10
-6.29904e-11
1.18396e-10
2.16618e-10
1.59113e-10
1.46737e-10
1.34975e-10
1.20489e-10
1.05938e-10
9.09641e-11
7.56159e-11
6.00306e-11
4.42366e-11
2.82257e-11
1.20345e-11
-4.1924e-12
-2.02692e-11
-3.61019e-11
-5.19025e-11
-6.35573e-11
-9.66624e-11
-6.03645e-11
1.15585e-10
2.08418e-10
1.5711e-10
1.45884e-10
1.34608e-10
1.20344e-10
1.05837e-10
9.08767e-11
7.55423e-11
5.99699e-11
4.41921e-11
2.82082e-11
1.20609e-11
-4.0876e-12
-2.00173e-11
-3.55363e-11
-5.0723e-11
-6.14855e-11
-8.95366e-11
-5.73794e-11
1.11984e-10
1.98786e-10
1.55339e-10
1.4543e-10
1.34556e-10
1.20451e-10
1.05916e-10
9.09132e-11
7.55498e-11
5.99604e-11
4.4178e-11
2.82051e-11
1.20887e-11
-3.99893e-12
-1.98081e-11
-3.50555e-11
-4.96545e-11
-5.95875e-11
-8.23594e-11
-5.41828e-11
1.07654e-10
1.88736e-10
1.54378e-10
1.45639e-10
1.34946e-10
1.20856e-10
1.06191e-10
9.10748e-11
7.56371e-11
5.9999e-11
4.419e-11
2.82097e-11
1.21024e-11
-3.95613e-12
-1.96966e-11
-3.47629e-11
-4.88874e-11
-5.81778e-11
-7.57812e-11
-5.09334e-11
1.03227e-10
1.80256e-10
1.55207e-10
1.46929e-10
1.35943e-10
1.21623e-10
1.06677e-10
9.13632e-11
7.58009e-11
6.00826e-11
4.42235e-11
2.82133e-11
1.20837e-11
-3.99487e-12
-1.97488e-11
-3.4785e-11
-4.86824e-11
-5.77629e-11
-7.08833e-11
-4.8068e-11
1.00719e-10
1.77063e-10
1.5963e-10
1.49987e-10
1.37836e-10
1.22851e-10
1.07409e-10
9.1789e-11
7.60451e-11
6.02139e-11
4.42792e-11
2.821e-11
1.20196e-11
-4.14537e-12
-2.00304e-11
-3.52713e-11
-4.93836e-11
-5.91498e-11
-6.95721e-11
-4.69362e-11
1.03832e-10
1.824e-10
1.67622e-10
1.5467e-10
1.40466e-10
1.24405e-10
1.08294e-10
9.22957e-11
7.63373e-11
6.03743e-11
4.43487e-11
2.82009e-11
1.19194e-11
-4.38272e-12
-2.0498e-11
-3.61494e-11
-5.09396e-11
-6.22815e-11
-7.29876e-11
-4.95444e-11
)
;

boundaryField
{
    top
    {
        type            zeroGradient;
    }
    bottom
    {
        type            zeroGradient;
    }
    inlet
    {
        type            fixedValue;
        value           uniform 0;
    }
    outlet
    {
        type            fixedValue;
        value           uniform 0;
    }
    frontAndBack
    {
        type            empty;
    }
}


// ************************************************************************* //
