/*--------------------------------*- C++ -*----------------------------------*\
  =========                 |
  \\      /  F ield         | OpenFOAM: The Open Source CFD Toolbox
   \\    /   O peration     | Website:  https://openfoam.org
    \\  /    A nd           | Version:  9
     \\/     M anipulation  |
\*---------------------------------------------------------------------------*/
FoamFile
{
    format      ascii;
    class       surfaceScalarField;
    location    "3.9";
    object      phi;
}
// * * * * * * * * * * * * * * * * * * * * * * * * * * * * * * * * * * * * * //

dimensions      [0 3 -1 0 0 0 0];

internalField   nonuniform List<scalar> 
760
(
1.25e-06
-6.34791e-16
1.25e-06
-5.28269e-16
1.25e-06
-2.5161e-16
1.25e-06
-1.43093e-16
1.25e-06
-8.2141e-17
1.25e-06
-4.51434e-17
1.25e-06
-2.47405e-17
1.25e-06
-1.29555e-17
1.25e-06
-6.32504e-18
1.25e-06
-2.88038e-18
1.25e-06
-1.08204e-18
1.25e-06
2.37306e-20
1.25e-06
1.04059e-18
1.25e-06
2.69001e-18
1.25e-06
6.37581e-18
1.25e-06
1.61032e-17
1.25e-06
3.83993e-17
1.25e-06
8.58223e-17
1.25e-06
2.70395e-16
3.12112e-16
3.75e-06
-1.52814e-15
3.75e-06
-1.432e-15
3.75e-06
-8.18735e-16
3.75e-06
-4.87283e-16
3.75e-06
-2.87561e-16
3.75e-06
-1.63621e-16
3.75e-06
-9.13959e-17
3.75e-06
-4.9207e-17
3.75e-06
-2.5037e-17
3.75e-06
-1.16844e-17
3.75e-06
-4.35692e-18
3.75e-06
5.2326e-20
3.75e-06
3.88025e-18
3.75e-06
9.89179e-18
3.75e-06
2.3028e-17
3.75e-06
5.47057e-17
3.75e-06
1.25391e-16
3.75e-06
2.69229e-16
3.75e-06
6.56177e-16
6.93468e-16
6.25e-06
-2.32424e-15
6.25e-06
-2.33182e-15
6.25e-06
-1.48229e-15
6.25e-06
-9.17917e-16
6.25e-06
-5.56232e-16
6.25e-06
-3.24166e-16
6.25e-06
-1.83969e-16
6.25e-06
-1.00623e-16
6.25e-06
-5.21778e-17
6.25e-06
-2.48268e-17
6.25e-06
-9.59373e-18
6.25e-06
-5.31453e-19
6.25e-06
6.9876e-18
6.25e-06
1.82961e-17
6.25e-06
4.23848e-17
6.25e-06
9.78602e-17
6.25e-06
2.17308e-16
6.25e-06
4.49497e-16
6.25e-06
9.52117e-16
9.52828e-16
8.75e-06
-2.92033e-15
8.75e-06
-3.04165e-15
8.75e-06
-2.07036e-15
8.75e-06
-1.32847e-15
8.75e-06
-8.24464e-16
8.75e-06
-4.90035e-16
8.75e-06
-2.81929e-16
8.75e-06
-1.56044e-16
8.75e-06
-8.18986e-17
8.75e-06
-3.95283e-17
8.75e-06
-1.58365e-17
8.75e-06
-2.02798e-18
8.75e-06
8.7618e-18
8.75e-06
2.40947e-17
8.75e-06
5.60595e-17
8.75e-06
1.27699e-16
8.75e-06
2.78073e-16
8.75e-06
5.56049e-16
8.75e-06
1.08744e-15
1.05465e-15
1.125e-05
-3.25556e-15
1.125e-05
-3.46652e-15
1.125e-05
-2.47685e-15
1.125e-05
-1.63679e-15
1.125e-05
-1.03738e-15
1.125e-05
-6.26937e-16
1.125e-05
-3.64928e-16
1.125e-05
-2.03777e-16
1.125e-05
-1.07773e-16
1.125e-05
-5.25145e-17
1.125e-05
-2.17207e-17
1.125e-05
-4.37169e-18
1.125e-05
8.0033e-18
1.125e-05
2.42393e-17
1.125e-05
5.76553e-17
1.125e-05
1.32018e-16
1.125e-05
2.86182e-16
1.125e-05
5.59817e-16
1.125e-05
1.04392e-15
9.89495e-16
1.375e-05
-3.31373e-15
1.375e-05
-3.57413e-15
1.375e-05
-2.64602e-15
1.375e-05
-1.79095e-15
1.375e-05
-1.15561e-15
1.375e-05
-7.0827e-16
1.375e-05
-4.16204e-16
1.375e-05
-2.33803e-16
1.375e-05
-1.24084e-16
1.375e-05
-6.07206e-17
1.375e-05
-2.57996e-17
1.375e-05
-7.18195e-18
1.375e-05
4.20563e-18
1.375e-05
1.71687e-17
1.375e-05
4.41122e-17
1.375e-05
1.05796e-16
1.375e-05
2.35547e-16
1.375e-05
4.58786e-16
1.375e-05
8.38245e-16
7.75018e-16
1.625e-05
-3.10585e-15
1.625e-05
-3.37097e-15
1.625e-05
-2.56294e-15
1.625e-05
-1.76806e-15
1.625e-05
-1.15827e-15
1.625e-05
-7.18222e-16
1.625e-05
-4.25087e-16
1.625e-05
-2.39422e-16
1.625e-05
-1.26858e-16
1.625e-05
-6.18965e-17
1.625e-05
-2.688e-17
1.625e-05
-9.88093e-18
1.625e-05
-2.40023e-18
1.625e-05
3.00239e-18
1.625e-05
1.58256e-17
1.625e-05
5.08163e-17
1.625e-05
1.3194e-16
1.625e-05
2.69209e-16
1.625e-05
5.03618e-16
4.41224e-16
1.875e-05
-2.66552e-15
1.875e-05
-2.89282e-15
1.875e-05
-2.24439e-15
1.875e-05
-1.57181e-15
1.875e-05
-1.04319e-15
1.875e-05
-6.53156e-16
1.875e-05
-3.88326e-16
1.875e-05
-2.18316e-16
1.875e-05
-1.14583e-16
1.875e-05
-5.50922e-17
1.875e-05
-2.43116e-17
1.875e-05
-1.18724e-17
1.875e-05
-1.09574e-17
1.875e-05
-1.66571e-17
1.875e-05
-2.38573e-17
1.875e-05
-2.59221e-17
1.875e-05
-1.04448e-17
1.875e-05
1.78378e-17
1.875e-05
8.30203e-17
2.69617e-17
2.125e-05
-2.04164e-15
2.125e-05
-2.19576e-15
2.125e-05
-1.73191e-15
2.125e-05
-1.22827e-15
2.125e-05
-8.2545e-16
2.125e-05
-5.21328e-16
2.125e-05
-3.10364e-16
2.125e-05
-1.72837e-16
2.125e-05
-8.84906e-17
2.125e-05
-4.08718e-17
2.125e-05
-1.81526e-17
2.125e-05
-1.27054e-17
2.125e-05
-2.02408e-17
2.125e-05
-3.91422e-17
2.125e-05
-6.96014e-17
2.125e-05
-1.14047e-16
2.125e-05
-1.72645e-16
2.125e-05
-2.63333e-16
2.125e-05
-3.77368e-16
-4.2581e-16
2.375e-05
-1.29498e-15
2.375e-05
-1.3508e-15
2.375e-05
-1.0854e-15
2.375e-05
-7.81194e-16
2.375e-05
-5.34353e-16
2.375e-05
-3.41216e-16
2.375e-05
-2.02408e-16
2.375e-05
-1.09608e-16
2.375e-05
-5.23665e-17
2.375e-05
-2.1251e-17
2.375e-05
-9.23702e-18
2.375e-05
-1.21988e-17
2.375e-05
-2.8882e-17
2.375e-05
-6.12815e-17
2.375e-05
-1.15067e-16
2.375e-05
-2.01726e-16
2.375e-05
-3.33978e-16
2.375e-05
-5.41319e-16
2.375e-05
-8.31632e-16
-8.7454e-16
2.625e-05
-4.93866e-16
2.625e-05
-4.38938e-16
2.625e-05
-3.77289e-16
2.625e-05
-2.86564e-16
2.625e-05
-2.09264e-16
2.625e-05
-1.38658e-16
2.625e-05
-8.06165e-17
2.625e-05
-3.83893e-17
2.625e-05
-1.19007e-17
2.625e-05
6.43685e-19
2.625e-05
9.89664e-19
2.625e-05
-1.04881e-17
2.625e-05
-3.56506e-17
2.625e-05
-7.99387e-17
2.625e-05
-1.53959e-16
2.625e-05
-2.7739e-16
2.625e-05
-4.74618e-16
2.625e-05
-7.85151e-16
2.625e-05
-1.23706e-15
-1.2789e-15
2.875e-05
2.89557e-16
2.875e-05
4.53239e-16
2.875e-05
3.13199e-16
2.875e-05
1.93424e-16
2.875e-05
1.05485e-16
2.875e-05
5.69805e-17
2.875e-05
3.6522e-17
2.875e-05
2.96331e-17
2.875e-05
2.6356e-17
2.875e-05
2.11585e-17
2.875e-05
1.07567e-17
2.875e-05
-7.98208e-18
2.875e-05
-3.96549e-17
2.875e-05
-9.24457e-17
2.875e-05
-1.80912e-16
2.875e-05
-3.31161e-16
2.875e-05
-5.776e-16
2.875e-05
-9.68283e-16
2.875e-05
-1.55618e-15
-1.60281e-15
3.125e-05
9.83017e-16
3.125e-05
1.23807e-15
3.125e-05
9.06409e-16
3.125e-05
5.9708e-16
3.125e-05
3.66557e-16
3.125e-05
2.17299e-16
3.125e-05
1.31337e-16
3.125e-05
8.38509e-17
3.125e-05
5.62403e-17
3.125e-05
3.68669e-17
3.125e-05
1.83197e-17
3.125e-05
-5.24718e-18
3.125e-05
-4.03904e-17
3.125e-05
-9.70425e-17
3.125e-05
-1.9219e-16
3.125e-05
-3.56005e-16
3.125e-05
-6.30477e-16
3.125e-05
-1.07045e-15
3.125e-05
-1.75849e-15
-1.81617e-15
3.375e-05
1.51898e-15
3.375e-05
1.83226e-15
3.375e-05
1.32941e-15
3.375e-05
8.71008e-16
3.375e-05
5.3805e-16
3.375e-05
3.1974e-16
3.375e-05
1.90225e-16
3.375e-05
1.16333e-16
3.375e-05
7.32533e-17
3.375e-05
4.52741e-17
3.375e-05
2.23997e-17
3.375e-05
-2.81473e-18
3.375e-05
-3.78113e-17
3.375e-05
-9.30972e-17
3.375e-05
-1.86205e-16
3.375e-05
-3.48623e-16
3.375e-05
-6.26606e-16
3.375e-05
-1.07927e-15
3.375e-05
-1.8221e-15
-1.89668e-15
3.625e-05
1.83797e-15
3.625e-05
2.1629e-15
3.625e-05
1.52542e-15
3.625e-05
9.7862e-16
3.625e-05
5.98336e-16
3.625e-05
3.52056e-16
3.625e-05
2.06559e-16
3.625e-05
1.23563e-16
3.625e-05
7.55738e-17
3.625e-05
4.54489e-17
3.625e-05
2.24744e-17
3.625e-05
-1.0326e-18
3.625e-05
-3.23414e-17
3.625e-05
-8.12016e-17
3.625e-05
-1.6385e-16
3.625e-05
-3.1e-16
3.625e-05
-5.66215e-16
3.625e-05
-9.92008e-16
3.625e-05
-1.73555e-15
-1.83123e-15
3.875e-05
1.8979e-15
3.875e-05
2.17855e-15
3.875e-05
1.46494e-15
3.875e-05
9.10001e-16
3.875e-05
5.4601e-16
3.875e-05
3.16066e-16
3.875e-05
1.82638e-16
3.875e-05
1.07529e-16
3.875e-05
6.46166e-17
3.875e-05
3.82969e-17
3.875e-05
1.89586e-17
3.875e-05
-4.44325e-20
3.875e-05
-2.4778e-17
3.875e-05
-6.31877e-17
3.875e-05
-1.28526e-16
3.875e-05
-2.4582e-16
3.875e-05
-4.57384e-16
3.875e-05
-8.17391e-16
3.875e-05
-1.50093e-15
-1.61873e-15
4.125e-05
1.67729e-15
4.125e-05
1.86076e-15
4.125e-05
1.16246e-15
4.125e-05
6.90604e-16
4.125e-05
4.04569e-16
4.125e-05
2.28994e-16
4.125e-05
1.30099e-16
4.125e-05
7.5579e-17
4.125e-05
4.49068e-17
4.125e-05
2.64205e-17
4.125e-05
1.31394e-17
4.125e-05
3.08833e-19
4.125e-05
-1.62603e-17
4.125e-05
-4.20244e-17
4.125e-05
-8.60899e-17
4.125e-05
-1.66517e-16
4.125e-05
-3.16719e-16
4.125e-05
-5.78354e-16
4.125e-05
-1.13754e-15
-1.27259e-15
4.375e-05
1.20029e-15
4.375e-05
1.25616e-15
4.375e-05
6.94096e-16
4.375e-05
3.8963e-16
4.375e-05
2.22208e-16
4.375e-05
1.2215e-16
4.375e-05
6.80092e-17
4.375e-05
3.9077e-17
4.375e-05
2.30865e-17
4.375e-05
1.35859e-17
4.375e-05
6.85017e-18
4.375e-05
3.42761e-19
4.375e-05
-8.21637e-18
4.375e-05
-2.15632e-17
4.375e-05
-4.4469e-17
4.375e-05
-8.69487e-17
4.375e-05
-1.70092e-16
4.375e-05
-3.15791e-16
4.375e-05
-6.92168e-16
-8.28242e-16
4.625e-05
5.30426e-16
4.625e-05
5.08588e-16
4.625e-05
2.26869e-16
4.625e-05
1.16719e-16
4.625e-05
6.53719e-17
4.625e-05
3.42749e-17
4.625e-05
1.85677e-17
4.625e-05
1.05797e-17
4.625e-05
6.26061e-18
4.625e-05
3.76261e-18
4.625e-05
2.00149e-18
4.625e-05
2.35392e-19
4.625e-05
-2.24161e-18
4.625e-05
-6.16425e-18
4.625e-05
-1.27943e-17
4.625e-05
-2.52827e-17
4.625e-05
-5.15529e-17
4.625e-05
-9.53309e-17
4.625e-05
-2.53136e-16
-3.42829e-16
4.875e-05
4.875e-05
4.875e-05
4.875e-05
4.875e-05
4.875e-05
4.875e-05
4.875e-05
4.875e-05
4.875e-05
4.875e-05
4.875e-05
4.875e-05
4.875e-05
4.875e-05
4.875e-05
4.875e-05
4.875e-05
4.875e-05
)
;

boundaryField
{
    top
    {
        type            calculated;
        value           uniform 0;
    }
    bottom
    {
        type            calculated;
        value           uniform 0;
    }
    inlet
    {
        type            calculated;
        value           nonuniform List<scalar> 
20
(
-1.25e-06
-3.75e-06
-6.25e-06
-8.75e-06
-1.125e-05
-1.375e-05
-1.625e-05
-1.875e-05
-2.125e-05
-2.375e-05
-2.625e-05
-2.875e-05
-3.125e-05
-3.375e-05
-3.625e-05
-3.875e-05
-4.125e-05
-4.375e-05
-4.625e-05
-4.875e-05
)
;
    }
    outlet
    {
        type            calculated;
        value           nonuniform List<scalar> 
20
(
1.25e-06
3.75e-06
6.25e-06
8.75e-06
1.125e-05
1.375e-05
1.625e-05
1.875e-05
2.125e-05
2.375e-05
2.625e-05
2.875e-05
3.125e-05
3.375e-05
3.625e-05
3.875e-05
4.125e-05
4.375e-05
4.625e-05
4.875e-05
)
;
    }
    frontAndBack
    {
        type            empty;
        value           nonuniform List<scalar> 0();
    }
}


// ************************************************************************* //
