/*--------------------------------*- C++ -*----------------------------------*\
  =========                 |
  \\      /  F ield         | OpenFOAM: The Open Source CFD Toolbox
   \\    /   O peration     | Website:  https://openfoam.org
    \\  /    A nd           | Version:  9
     \\/     M anipulation  |
\*---------------------------------------------------------------------------*/
FoamFile
{
    format      ascii;
    class       volVectorField;
    location    "3.9";
    object      U;
}
// * * * * * * * * * * * * * * * * * * * * * * * * * * * * * * * * * * * * * //

dimensions      [0 1 -1 0 0 0 0];

internalField   nonuniform List<vector> 
400
(
(0.025 -3.10744e-12 0)
(0.025 -2.48679e-12 0)
(0.025 -1.04702e-12 0)
(0.025 -5.58559e-13 0)
(0.025 -3.0837e-13 0)
(0.025 -1.63545e-13 0)
(0.025 -8.81817e-14 0)
(0.025 -4.41275e-14 0)
(0.025 -1.98926e-14 0)
(0.025 -8.47793e-15 0)
(0.025 -3.05665e-15 0)
(0.025 4.53242e-16 0)
(0.025 4.10337e-15 0)
(0.025 1.03206e-14 0)
(0.025 2.46242e-14 0)
(0.025 6.53666e-14 0)
(0.025 1.63021e-13 0)
(0.025 3.88151e-13 0)
(0.025 1.36428e-12 0)
(0.025 1.59885e-12 0)
(0.075 -1.06975e-11 0)
(0.075 -9.51157e-12 0)
(0.075 -4.96746e-12 0)
(0.075 -2.85196e-12 0)
(0.075 -1.64734e-12 0)
(0.075 -9.15964e-13 0)
(0.075 -5.03609e-13 0)
(0.075 -2.66349e-13 0)
(0.075 -1.32077e-13 0)
(0.075 -5.99285e-14 0)
(0.075 -2.13194e-14 0)
(0.075 2.02388e-15 0)
(0.075 2.30717e-14 0)
(0.075 5.73914e-14 0)
(0.075 1.34376e-13 0)
(0.075 3.28667e-13 0)
(0.075 7.72706e-13 0)
(0.075 1.71899e-12 0)
(0.075 4.66586e-12 0)
(0.075 5.12124e-12 0)
(0.125 -1.94532e-11 0)
(0.125 -1.88918e-11 0)
(0.125 -1.14108e-11 0)
(0.125 -6.90419e-12 0)
(0.125 -4.11829e-12 0)
(0.125 -2.36814e-12 0)
(0.125 -1.33172e-12 0)
(0.125 -7.21661e-13 0)
(0.125 -3.70276e-13 0)
(0.125 -1.74312e-13 0)
(0.125 -6.58868e-14 0)
(0.125 -5.78628e-16 0)
(0.125 5.56085e-14 0)
(0.125 1.42638e-13 0)
(0.125 3.30449e-13 0)
(0.125 7.71914e-13 0)
(0.125 1.7391e-12 0)
(0.125 3.66945e-12 0)
(0.125 8.25527e-12 0)
(0.125 8.49041e-12 0)
(0.175 -2.67665e-11 0)
(0.175 -2.73751e-11 0)
(0.175 -1.8051e-11 0)
(0.175 -1.13701e-11 0)
(0.175 -6.96522e-12 0)
(0.175 -4.09553e-12 0)
(0.175 -2.33816e-12 0)
(0.175 -1.28619e-12 0)
(0.175 -6.71264e-13 0)
(0.175 -3.21792e-13 0)
(0.175 -1.26342e-13 0)
(0.175 -1.06088e-14 0)
(0.175 8.36365e-14 0)
(0.175 2.22415e-13 0)
(0.175 5.14488e-13 0)
(0.175 1.17569e-12 0)
(0.175 2.57829e-12 0)
(0.175 5.23364e-12 0)
(0.175 1.05695e-11 0)
(0.175 1.04281e-11 0)
(0.225 -3.15628e-11 0)
(0.225 -3.32609e-11 0)
(0.225 -2.32564e-11 0)
(0.225 -1.51492e-11 0)
(0.225 -9.49902e-12 0)
(0.225 -5.69216e-12 0)
(0.225 -3.29355e-12 0)
(0.225 -1.83156e-12 0)
(0.225 -9.65786e-13 0)
(0.225 -4.68871e-13 0)
(0.225 -1.9082e-13 0)
(0.225 -3.04687e-14 0)
(0.225 9.09068e-14 0)
(0.225 2.58145e-13 0)
(0.225 6.03281e-13 0)
(0.225 1.36941e-12 0)
(0.225 2.96048e-12 0)
(0.225 5.83459e-12 0)
(0.225 1.10604e-11 0)
(0.225 1.06214e-11 0)
(0.275 -3.35331e-11 0)
(0.275 -3.59606e-11 0)
(0.275 -2.62238e-11 0)
(0.275 -1.75561e-11 0)
(0.275 -1.12314e-11 0)
(0.275 -6.83791e-12 0)
(0.275 -4.00062e-12 0)
(0.275 -2.24215e-12 0)
(0.275 -1.18931e-12 0)
(0.275 -5.81723e-13 0)
(0.275 -2.44099e-13 0)
(0.275 -5.75753e-14 0)
(0.275 6.83043e-14 0)
(0.275 2.25073e-13 0)
(0.275 5.46432e-13 0)
(0.275 1.26316e-12 0)
(0.275 2.74683e-12 0)
(0.275 5.32984e-12 0)
(0.275 9.75754e-12 0)
(0.275 9.16104e-12 0)
(0.325 -3.27261e-11 0)
(0.325 -3.54327e-11 0)
(0.325 -2.66506e-11 0)
(0.325 -1.82363e-11 0)
(0.325 -1.18653e-11 0)
(0.325 -7.31956e-12 0)
(0.325 -4.31969e-12 0)
(0.325 -2.43231e-12 0)
(0.325 -1.29198e-12 0)
(0.325 -6.32874e-13 0)
(0.325 -2.72387e-13 0)
(0.325 -8.67758e-14 0)
(0.325 1.46835e-14 0)
(0.325 1.16352e-13 0)
(0.325 3.32019e-13 0)
(0.325 8.4525e-13 0)
(0.325 1.94932e-12 0)
(0.325 3.82204e-12 0)
(0.325 6.96533e-12 0)
(0.325 6.33218e-12 0)
(0.375 -2.93811e-11 0)
(0.375 -3.19172e-11 0)
(0.375 -2.4571e-11 0)
(0.375 -1.71042e-11 0)
(0.375 -1.12879e-11 0)
(0.375 -7.03896e-12 0)
(0.375 -4.17943e-12 0)
(0.375 -2.35527e-12 0)
(0.375 -1.2451e-12 0)
(0.375 -6.05387e-13 0)
(0.375 -2.65796e-13 0)
(0.375 -1.11674e-13 0)
(0.375 -6.39368e-14 0)
(0.375 -5.84222e-14 0)
(0.375 -1.91411e-14 0)
(0.375 1.6442e-13 0)
(0.375 6.77528e-13 0)
(0.375 1.54459e-12 0)
(0.375 3.08322e-12 0)
(0.375 2.49052e-12 0)
(0.425 -2.39218e-11 0)
(0.425 -2.58883e-11 0)
(0.425 -2.02912e-11 0)
(0.425 -1.43188e-11 0)
(0.425 -9.56873e-12 0)
(0.425 -6.02127e-12 0)
(0.425 -3.58639e-12 0)
(0.425 -2.01119e-12 0)
(0.425 -1.04702e-12 0)
(0.425 -4.97035e-13 0)
(0.425 -2.21045e-13 0)
(0.425 -1.26617e-13 0)
(0.425 -1.56474e-13 0)
(0.425 -2.76593e-13 0)
(0.425 -4.61093e-13 0)
(0.425 -6.87778e-13 0)
(0.425 -8.94626e-13 0)
(0.425 -1.19793e-12 0)
(0.425 -1.43168e-12 0)
(0.425 -1.95061e-12 0)
(0.475 -1.69057e-11 0)
(0.475 -1.79938e-11 0)
(0.475 -1.43329e-11 0)
(0.475 -1.02415e-11 0)
(0.475 -6.93837e-12 0)
(0.475 -4.40563e-12 0)
(0.475 -2.6221e-12 0)
(0.475 -1.44682e-12 0)
(0.475 -7.23826e-13 0)
(0.475 -3.21213e-13 0)
(0.475 -1.42712e-13 0)
(0.475 -1.28223e-13 0)
(0.475 -2.4928e-13 0)
(0.475 -5.07604e-13 0)
(0.475 -9.32877e-13 0)
(0.475 -1.59581e-12 0)
(0.475 -2.56217e-12 0)
(0.475 -4.07196e-12 0)
(0.475 -6.11128e-12 0)
(0.475 -6.56219e-12 0)
(0.525 -8.98903e-12 0)
(0.525 -9.006e-12 0)
(0.525 -7.37203e-12 0)
(0.525 -5.38494e-12 0)
(0.525 -3.75169e-12 0)
(0.525 -2.42198e-12 0)
(0.525 -1.42897e-12 0)
(0.525 -7.47603e-13 0)
(0.525 -3.25047e-13 0)
(0.525 -1.04799e-13 0)
(0.525 -4.27298e-14 0)
(0.525 -1.1627e-13 0)
(0.525 -3.28853e-13 0)
(0.525 -7.18653e-13 0)
(0.525 -1.36896e-12 0)
(0.525 -2.43878e-12 0)
(0.525 -4.11687e-12 0)
(0.525 -6.75108e-12 0)
(0.525 -1.05059e-11 0)
(0.525 -1.09235e-11 0)
(0.575 -8.83783e-13 0)
(0.575 2.25627e-13 0)
(0.575 -1.82241e-13 0)
(0.575 -3.5601e-13 0)
(0.575 -4.41019e-13 0)
(0.575 -3.56826e-13 0)
(0.575 -1.87539e-13 0)
(0.575 -2.30126e-14 0)
(0.575 8.52143e-14 0)
(0.575 1.16588e-13 0)
(0.575 6.19605e-14 0)
(0.575 -9.37465e-14 0)
(0.575 -3.84238e-13 0)
(0.575 -8.79678e-13 0)
(0.575 -1.70911e-12 0)
(0.575 -3.10631e-12 0)
(0.575 -5.37036e-12 0)
(0.575 -8.94244e-12 0)
(0.575 -1.42097e-11 0)
(0.575 -1.46476e-11 0)
(0.625 6.67654e-12 0)
(0.625 8.81678e-12 0)
(0.625 6.42553e-12 0)
(0.625 4.20783e-12 0)
(0.625 2.53978e-12 0)
(0.625 1.48915e-12 0)
(0.625 9.13253e-13 0)
(0.625 6.12677e-13 0)
(0.625 4.40112e-13 0)
(0.625 3.05637e-13 0)
(0.625 1.5273e-13 0)
(0.625 -6.59155e-14 0)
(0.625 -4.0832e-13 0)
(0.625 -9.67863e-13 0)
(0.625 -1.90636e-12 0)
(0.625 -3.51143e-12 0)
(0.625 -6.17205e-12 0)
(0.625 -1.04077e-11 0)
(0.625 -1.68782e-11 0)
(0.625 -1.7399e-11 0)
(0.675 1.29834e-11 0)
(0.675 1.58989e-11 0)
(0.675 1.16684e-11 0)
(0.675 7.7114e-12 0)
(0.675 4.77779e-12 0)
(0.675 2.8492e-12 0)
(0.675 1.70902e-12 0)
(0.675 1.06178e-12 0)
(0.675 6.83298e-13 0)
(0.675 4.30982e-13 0)
(0.675 2.13507e-13 0)
(0.675 -3.87089e-14 0)
(0.675 -3.98403e-13 0)
(0.675 -9.70858e-13 0)
(0.675 -1.93322e-12 0)
(0.675 -3.60084e-12 0)
(0.675 -6.42381e-12 0)
(0.675 -1.09799e-11 0)
(0.675 -1.82459e-11 0)
(0.675 -1.89121e-11 0)
(0.725 1.73874e-11 0)
(0.725 2.06724e-11 0)
(0.725 1.4875e-11 0)
(0.725 9.68262e-12 0)
(0.725 5.96947e-12 0)
(0.725 3.53866e-12 0)
(0.725 2.09222e-12 0)
(0.725 1.26327e-12 0)
(0.725 7.81053e-13 0)
(0.725 4.7427e-13 0)
(0.725 2.34611e-13 0)
(0.725 -1.68981e-14 0)
(0.725 -3.56479e-13 0)
(0.725 -8.8838e-13 0)
(0.725 -1.78585e-12 0)
(0.725 -3.36205e-12 0)
(0.725 -6.09147e-12 0)
(0.725 -1.05796e-11 0)
(0.725 -1.81408e-11 0)
(0.725 -1.90057e-11 0)
(0.775 1.93652e-11 0)
(0.775 2.24838e-11 0)
(0.775 1.55753e-11 0)
(0.775 9.86351e-12 0)
(0.775 5.98451e-12 0)
(0.775 3.49782e-12 0)
(0.775 2.03747e-12 0)
(0.775 1.20784e-12 0)
(0.775 7.30554e-13 0)
(0.775 4.35023e-13 0)
(0.775 2.15284e-13 0)
(0.775 -3.07875e-15 0)
(0.775 -2.88806e-13 0)
(0.775 -7.32668e-13 0)
(0.775 -1.48563e-12 0)
(0.775 -2.8276e-12 0)
(0.775 -5.21374e-12 0)
(0.775 -9.22904e-12 0)
(0.775 -1.6505e-11 0)
(0.775 -1.76018e-11 0)
(0.825 1.85193e-11 0)
(0.825 2.08879e-11 0)
(0.825 1.36255e-11 0)
(0.825 8.2945e-12 0)
(0.825 4.91912e-12 0)
(0.825 2.81716e-12 0)
(0.825 1.61374e-12 0)
(0.825 9.42595e-13 0)
(0.825 5.62105e-13 0)
(0.825 3.31227e-13 0)
(0.825 1.64373e-13 0)
(0.825 3.05712e-15 0)
(0.825 -2.04911e-13 0)
(0.825 -5.27498e-13 0)
(0.825 -1.07829e-12 0)
(0.825 -2.07613e-12 0)
(0.825 -3.90777e-12 0)
(0.825 -7.06796e-12 0)
(0.825 -1.34052e-11 0)
(0.825 -1.47263e-11 0)
(0.875 1.47905e-11 0)
(0.875 1.59553e-11 0)
(0.875 9.44282e-12 0)
(0.875 5.44868e-12 0)
(0.875 3.14334e-12 0)
(0.875 1.75254e-12 0)
(0.875 9.84685e-13 0)
(0.875 5.67907e-13 0)
(0.875 3.35643e-13 0)
(0.875 1.96906e-13 0)
(0.875 9.83361e-14 0)
(0.875 3.71776e-15 0)
(0.875 -1.18999e-13 0)
(0.875 -3.09969e-13 0)
(0.875 -6.36889e-13 0)
(0.875 -1.23921e-12 0)
(0.875 -2.39214e-12 0)
(0.875 -4.41827e-12 0)
(0.875 -9.15463e-12 0)
(0.875 -1.05822e-11 0)
(0.925 8.78168e-12 0)
(0.925 8.84317e-12 0)
(0.925 4.44183e-12 0)
(0.925 2.35828e-12 0)
(0.925 1.31675e-12 0)
(0.925 7.04238e-13 0)
(0.925 3.84854e-13 0)
(0.925 2.19303e-13 0)
(0.925 1.29336e-13 0)
(0.925 7.66789e-14 0)
(0.925 3.95098e-14 0)
(0.925 3.02765e-15 0)
(0.925 -4.6263e-14 0)
(0.925 -1.23793e-13 0)
(0.925 -2.56881e-13 0)
(0.925 -5.07022e-13 0)
(0.925 -1.01487e-12 0)
(0.925 -1.90324e-12 0)
(0.925 -4.57452e-12 0)
(0.925 -5.7707e-12 0)
(0.975 2.71328e-12 0)
(0.975 2.5371e-12 0)
(0.975 1.01432e-12 0)
(0.975 4.72272e-13 0)
(0.975 2.53564e-13 0)
(0.975 1.26337e-13 0)
(0.975 6.6186e-14 0)
(0.975 3.7291e-14 0)
(0.975 2.19792e-14 0)
(0.975 1.31751e-14 0)
(0.975 6.97144e-15 0)
(0.975 4.45502e-16 0)
(0.975 -9.44098e-15 0)
(0.975 -2.53773e-14 0)
(0.975 -5.13748e-14 0)
(0.975 -1.01003e-13 0)
(0.975 -2.12701e-13 0)
(0.975 -3.99465e-13 0)
(0.975 -1.192e-12 0)
(0.975 -1.66529e-12 0)
)
;

boundaryField
{
    top
    {
        type            fixedValue;
        value           uniform (1 0 0);
    }
    bottom
    {
        type            fixedValue;
        value           uniform (0 0 0);
    }
    inlet
    {
        type            zeroGradient;
    }
    outlet
    {
        type            zeroGradient;
    }
    frontAndBack
    {
        type            empty;
    }
}


// ************************************************************************* //
