/*--------------------------------*- C++ -*----------------------------------*\
  =========                 |
  \\      /  F ield         | OpenFOAM: The Open Source CFD Toolbox
   \\    /   O peration     | Website:  https://openfoam.org
    \\  /    A nd           | Version:  9
     \\/     M anipulation  |
\*---------------------------------------------------------------------------*/
FoamFile
{
    format      ascii;
    class       volScalarField;
    location    "0.6";
    object      p;
}
// * * * * * * * * * * * * * * * * * * * * * * * * * * * * * * * * * * * * * //

dimensions      [0 2 -2 0 0 0 0];

internalField   nonuniform List<scalar> 
400
(
1.26832e-06
2.19435e-06
1.99405e-06
1.76834e-06
1.55359e-06
1.3368e-06
1.1387e-06
9.55645e-07
7.79103e-07
6.07481e-07
4.32577e-07
2.58983e-07
8.97543e-08
-8.74741e-08
-2.84088e-07
-4.99518e-07
-7.16943e-07
-9.09368e-07
-1.08428e-06
-6.83057e-07
1.19338e-06
2.06324e-06
1.85275e-06
1.68676e-06
1.51249e-06
1.3186e-06
1.1325e-06
9.56843e-07
7.828e-07
6.11048e-07
4.38076e-07
2.66772e-07
9.86586e-08
-7.69766e-08
-2.6849e-07
-4.7342e-07
-6.7288e-07
-8.3606e-07
-1.01743e-06
-6.43898e-07
1.19108e-06
2.05198e-06
1.76925e-06
1.6315e-06
1.48346e-06
1.30497e-06
1.12753e-06
9.57322e-07
7.85416e-07
6.14028e-07
4.43409e-07
2.74186e-07
1.06155e-07
-6.88045e-08
-2.55863e-07
-4.52344e-07
-6.4031e-07
-7.89557e-07
-1.01814e-06
-6.51858e-07
1.22741e-06
2.12559e-06
1.73342e-06
1.59886e-06
1.46459e-06
1.29545e-06
1.12312e-06
9.56166e-07
7.87062e-07
6.1712e-07
4.48325e-07
2.80104e-07
1.11565e-07
-6.28109e-08
-2.45862e-07
-4.36108e-07
-6.18879e-07
-7.68281e-07
-1.06451e-06
-6.79727e-07
1.26865e-06
2.22829e-06
1.7236e-06
1.58079e-06
1.45263e-06
1.28826e-06
1.11933e-06
9.54209e-07
7.88442e-07
6.20511e-07
4.52037e-07
2.83524e-07
1.14788e-07
-5.81539e-08
-2.37319e-07
-4.23014e-07
-6.04136e-07
-7.59597e-07
-1.12361e-06
-7.06445e-07
1.30952e-06
2.33898e-06
1.7284e-06
1.57194e-06
1.44518e-06
1.28198e-06
1.11618e-06
9.53128e-07
7.89707e-07
6.22827e-07
4.53826e-07
2.84743e-07
1.16393e-07
-5.43717e-08
-2.29644e-07
-4.11683e-07
-5.92713e-07
-7.55619e-07
-1.18107e-06
-7.28216e-07
1.34913e-06
2.44689e-06
1.74237e-06
1.56922e-06
1.44172e-06
1.27777e-06
1.11424e-06
9.53065e-07
7.90599e-07
6.2358e-07
4.5372e-07
2.84273e-07
1.16819e-07
-5.13299e-08
-2.22762e-07
-4.01658e-07
-5.83234e-07
-7.52908e-07
-1.2291e-06
-7.43946e-07
1.38545e-06
2.54154e-06
1.76019e-06
1.57043e-06
1.4418e-06
1.27661e-06
1.11401e-06
9.5374e-07
7.91031e-07
6.23084e-07
4.52355e-07
2.82881e-07
1.16716e-07
-4.85712e-08
-2.16253e-07
-3.9223e-07
-5.74305e-07
-7.48935e-07
-1.26252e-06
-7.53055e-07
1.41625e-06
2.61437e-06
1.77777e-06
1.57452e-06
1.44525e-06
1.27887e-06
1.11581e-06
9.55086e-07
7.91186e-07
6.21969e-07
4.50595e-07
2.81448e-07
1.16818e-07
-4.55677e-08
-2.09698e-07
-3.82863e-07
-5.64899e-07
-7.42003e-07
-1.2782e-06
-7.5525e-07
1.43994e-06
2.65978e-06
1.79264e-06
1.58126e-06
1.45208e-06
1.28459e-06
1.11981e-06
9.5727e-07
7.91447e-07
6.20921e-07
4.49268e-07
2.80758e-07
1.17699e-07
-4.2001e-08
-2.02945e-07
-3.73387e-07
-5.54527e-07
-7.31273e-07
-1.27476e-06
-7.50549e-07
1.45546e-06
2.67494e-06
1.80381e-06
1.59078e-06
1.46239e-06
1.29366e-06
1.12607e-06
9.60563e-07
7.92292e-07
6.20575e-07
4.49028e-07
2.81354e-07
1.19677e-07
-3.78165e-08
-1.96119e-07
-3.6395e-07
-5.43152e-07
-7.16624e-07
-1.25226e-06
-7.39206e-07
1.46207e-06
2.65933e-06
1.81147e-06
1.60352e-06
1.47632e-06
1.30603e-06
1.13471e-06
9.65312e-07
7.9422e-07
6.21455e-07
4.50298e-07
2.83502e-07
1.22817e-07
-3.31694e-08
-1.89531e-07
-3.54889e-07
-5.3106e-07
-6.98528e-07
-1.21205e-06
-7.2169e-07
1.4593e-06
2.61463e-06
1.81693e-06
1.62036e-06
1.49426e-06
1.32188e-06
1.14605e-06
9.72009e-07
7.97785e-07
6.23997e-07
4.53291e-07
2.87208e-07
1.26965e-07
-2.83465e-08
-1.83566e-07
-3.46637e-07
-5.18787e-07
-6.78045e-07
-1.15668e-06
-6.98757e-07
1.44707e-06
2.54506e-06
1.82286e-06
1.64287e-06
1.51709e-06
1.34183e-06
1.16073e-06
9.81396e-07
8.03671e-07
6.28635e-07
4.58092e-07
2.92279e-07
1.31805e-07
-2.36804e-08
-1.78591e-07
-3.3968e-07
-5.0715e-07
-6.56921e-07
-1.0901e-06
-6.71574e-07
1.42589e-06
2.45789e-06
1.83347e-06
1.67335e-06
1.54622e-06
1.36686e-06
1.17962e-06
9.94351e-07
8.12628e-07
6.35788e-07
4.64705e-07
2.98399e-07
1.36925e-07
-1.94718e-08
-1.74861e-07
-3.34568e-07
-4.9735e-07
-6.37655e-07
-1.01769e-06
-6.41775e-07
1.39689e-06
2.36381e-06
1.85437e-06
1.71446e-06
1.5831e-06
1.39774e-06
1.20324e-06
1.01137e-06
8.25062e-07
6.4558e-07
4.72912e-07
3.05125e-07
1.41875e-07
-1.59644e-08
-1.72498e-07
-3.31919e-07
-4.91015e-07
-6.23336e-07
-9.45897e-07
-6.11218e-07
1.3622e-06
2.27768e-06
1.89251e-06
1.76851e-06
1.62841e-06
1.43432e-06
1.23113e-06
1.03204e-06
8.40572e-07
6.5747e-07
4.82039e-07
3.11878e-07
1.46294e-07
-1.33786e-08
-1.71658e-07
-3.32409e-07
-4.90006e-07
-6.17266e-07
-8.81741e-07
-5.81559e-07
1.33183e-06
2.22888e-06
1.9634e-06
1.84255e-06
1.68561e-06
1.47807e-06
1.26369e-06
1.05622e-06
8.58656e-07
6.70673e-07
4.9134e-07
3.1839e-07
1.5025e-07
-1.21113e-08
-1.73208e-07
-3.37312e-07
-4.97221e-07
-6.25552e-07
-8.37405e-07
-5.57062e-07
1.33657e-06
2.27014e-06
2.09537e-06
1.9491e-06
1.76108e-06
1.53232e-06
1.30243e-06
1.08414e-06
8.78788e-07
6.84528e-07
5.00348e-07
3.24339e-07
1.53518e-07
-1.25238e-08
-1.78085e-07
-3.48189e-07
-5.16116e-07
-6.57591e-07
-8.36214e-07
-5.52749e-07
1.42521e-06
2.43647e-06
2.28836e-06
2.0865e-06
1.85382e-06
1.59633e-06
1.34669e-06
1.11498e-06
9.00109e-07
6.98513e-07
5.08906e-07
3.29533e-07
1.55855e-07
-1.45158e-08
-1.86171e-07
-3.65584e-07
-5.48244e-07
-7.16159e-07
-8.96918e-07
-5.91193e-07
)
;

boundaryField
{
    top
    {
        type            zeroGradient;
    }
    bottom
    {
        type            zeroGradient;
    }
    inlet
    {
        type            fixedValue;
        value           uniform 0;
    }
    outlet
    {
        type            fixedValue;
        value           uniform 0;
    }
    frontAndBack
    {
        type            empty;
    }
}


// ************************************************************************* //
