/*--------------------------------*- C++ -*----------------------------------*\
  =========                 |
  \\      /  F ield         | OpenFOAM: The Open Source CFD Toolbox
   \\    /   O peration     | Website:  https://openfoam.org
    \\  /    A nd           | Version:  9
     \\/     M anipulation  |
\*---------------------------------------------------------------------------*/
FoamFile
{
    format      ascii;
    class       surfaceScalarField;
    location    "0.6";
    object      phi;
}
// * * * * * * * * * * * * * * * * * * * * * * * * * * * * * * * * * * * * * //

dimensions      [0 3 -1 0 0 0 0];

internalField   nonuniform List<scalar> 
760
(
1.24163e-06
-6.93328e-12
1.24164e-06
-7.02591e-12
1.24164e-06
-3.41573e-12
1.24164e-06
-1.64208e-12
1.24164e-06
-7.87446e-13
1.24164e-06
-2.7803e-13
1.24164e-06
-3.62379e-14
1.24164e-06
7.92918e-14
1.24164e-06
1.19341e-13
1.24164e-06
9.65836e-14
1.24164e-06
1.08824e-13
1.24164e-06
1.20533e-13
1.24164e-06
1.13942e-13
1.24164e-06
1.41405e-13
1.24164e-06
2.50566e-13
1.24164e-06
5.01892e-13
1.24164e-06
9.80017e-13
1.24164e-06
1.88084e-12
1.24163e-06
4.01559e-12
4.36665e-12
3.72511e-06
-1.59356e-11
3.72512e-06
-1.77476e-11
3.72513e-06
-1.0244e-11
3.72513e-06
-5.28132e-12
3.72513e-06
-2.5379e-12
3.72513e-06
-9.10982e-13
3.72513e-06
-9.43756e-14
3.72513e-06
2.79346e-13
3.72513e-06
4.28346e-13
3.72513e-06
4.0723e-13
3.72513e-06
3.99783e-13
3.72513e-06
4.03386e-13
3.72513e-06
4.30446e-13
3.72513e-06
5.72074e-13
3.72513e-06
9.38798e-13
3.72513e-06
1.72356e-12
3.72513e-06
3.20602e-12
3.72512e-06
5.82155e-12
3.72512e-06
1.05021e-11
1.031e-11
6.20921e-06
-2.27191e-11
6.20922e-06
-2.64518e-11
6.20922e-06
-1.6454e-11
6.20923e-06
-8.75185e-12
6.20923e-06
-4.13415e-12
6.20923e-06
-1.37082e-12
6.20923e-06
5.95787e-14
6.20923e-06
6.93651e-13
6.20923e-06
9.23203e-13
6.20923e-06
8.81054e-13
6.20923e-06
8.22997e-13
6.20923e-06
7.92637e-13
6.20922e-06
8.43724e-13
6.20922e-06
1.10799e-12
6.20922e-06
1.76543e-12
6.20922e-06
3.13842e-12
6.20922e-06
5.68024e-12
6.20922e-06
9.93868e-12
6.20921e-06
1.63423e-11
1.51854e-11
8.69431e-06
-2.58143e-11
8.69432e-06
-3.07397e-11
8.69432e-06
-2.00296e-11
8.69432e-06
-1.07491e-11
8.69432e-06
-4.84631e-12
8.69432e-06
-1.27322e-12
8.69432e-06
5.89848e-13
8.69432e-06
1.36684e-12
8.69432e-06
1.60276e-12
8.69432e-06
1.49633e-12
8.69432e-06
1.34454e-12
8.69432e-06
1.24408e-12
8.69432e-06
1.28615e-12
8.69432e-06
1.63578e-12
8.69432e-06
2.52576e-12
8.69432e-06
4.36124e-12
8.69431e-06
7.68627e-12
8.69431e-06
1.30122e-11
8.69431e-06
2.01146e-11
1.8171e-11
1.11808e-05
-2.5356e-11
1.11808e-05
-3.05964e-11
1.11808e-05
-2.02966e-11
1.11808e-05
-1.06411e-11
1.11808e-05
-4.26305e-12
1.11808e-05
-3.97941e-13
1.11808e-05
1.59021e-12
1.11808e-05
2.33434e-12
1.11808e-05
2.45816e-12
1.11808e-05
2.2194e-12
1.11808e-05
1.92942e-12
1.11808e-05
1.7209e-12
1.11808e-05
1.71061e-12
1.11808e-05
2.08107e-12
1.11808e-05
3.08679e-12
1.11808e-05
5.15559e-12
1.11808e-05
8.83313e-12
1.11808e-05
1.44981e-11
1.11808e-05
2.14627e-11
1.90929e-11
1.3669e-05
-2.16473e-11
1.3669e-05
-2.6353e-11
1.3669e-05
-1.7184e-11
1.3669e-05
-8.22267e-12
1.3669e-05
-2.21565e-12
1.3669e-05
1.35439e-12
1.3669e-05
3.08935e-12
1.3669e-05
3.58425e-12
1.3669e-05
3.46057e-12
1.3669e-05
3.01066e-12
1.3669e-05
2.53718e-12
1.3669e-05
2.18383e-12
1.3669e-05
2.0743e-12
1.3669e-05
2.3881e-12
1.3669e-05
3.36666e-12
1.3669e-05
5.40231e-12
1.3669e-05
8.97101e-12
1.3669e-05
1.42813e-11
1.3669e-05
2.04136e-11
1.79912e-11
1.61592e-05
-1.5201e-11
1.61591e-05
-1.86343e-11
1.61591e-05
-1.10375e-11
1.61591e-05
-3.63646e-12
1.61591e-05
1.22611e-12
1.61591e-05
3.93517e-12
1.61591e-05
5.0351e-12
1.61591e-05
5.05582e-12
1.61591e-05
4.55481e-12
1.61591e-05
3.82031e-12
1.61591e-05
3.1234e-12
1.61591e-05
2.59463e-12
1.61591e-05
2.34379e-12
1.61591e-05
2.52601e-12
1.61591e-05
3.33796e-12
1.61591e-05
5.08911e-12
1.61591e-05
8.13887e-12
1.61591e-05
1.25268e-11
1.61591e-05
1.73132e-11
1.51492e-11
1.86516e-05
-6.68393e-12
1.86516e-05
-8.26737e-12
1.86516e-05
-2.50119e-12
1.86515e-05
2.69276e-12
1.86515e-05
5.78028e-12
1.86515e-05
7.15054e-12
1.86515e-05
7.28922e-12
1.86515e-05
6.64125e-12
1.86515e-05
5.65924e-12
1.86515e-05
4.58687e-12
1.86515e-05
3.64103e-12
1.86515e-05
2.91898e-12
1.86515e-05
2.49778e-12
1.86515e-05
2.48948e-12
1.86515e-05
3.02159e-12
1.86515e-05
4.2879e-12
1.86515e-05
6.50625e-12
1.86515e-05
9.56706e-12
1.86515e-05
1.26645e-11
1.09771e-11
2.11464e-05
3.12751e-12
2.11464e-05
3.77804e-12
2.11464e-05
7.56779e-12
2.11464e-05
1.01218e-11
2.11464e-05
1.09916e-11
2.11464e-05
1.06845e-11
2.11464e-05
9.63739e-12
2.11464e-05
8.19212e-12
2.11464e-05
6.6711e-12
2.11464e-05
5.24024e-12
2.11464e-05
4.04313e-12
2.11464e-05
3.12882e-12
2.11464e-05
2.52749e-12
2.11464e-05
2.29511e-12
2.11464e-05
2.4752e-12
2.11464e-05
3.12839e-12
2.11464e-05
4.32203e-12
2.11464e-05
5.82116e-12
2.11464e-05
7.03727e-12
5.947e-12
2.36438e-05
1.33854e-11
2.36438e-05
1.64359e-11
2.36438e-05
1.817e-11
2.36438e-05
1.78558e-11
2.36438e-05
1.62817e-11
2.36438e-05
1.41357e-11
2.36438e-05
1.18123e-11
2.36438e-05
9.53341e-12
2.36438e-05
7.47688e-12
2.36438e-05
5.70865e-12
2.36438e-05
4.28692e-12
2.36438e-05
3.20406e-12
2.36438e-05
2.43566e-12
2.36438e-05
1.976e-12
2.36438e-05
1.77996e-12
2.36438e-05
1.7722e-12
2.36438e-05
1.87188e-12
2.36438e-05
1.73814e-12
2.36438e-05
1.01399e-12
5.52253e-13
2.61438e-05
2.32089e-11
2.61438e-05
2.85873e-11
2.61438e-05
2.82287e-11
2.61438e-05
2.50202e-11
2.61438e-05
2.10095e-11
2.61438e-05
1.70641e-11
2.61438e-05
1.35272e-11
2.61438e-05
1.04852e-11
2.61438e-05
7.96668e-12
2.61438e-05
5.92802e-12
2.61438e-05
4.339e-12
2.61438e-05
3.13451e-12
2.61438e-05
2.2351e-12
2.61438e-05
1.57565e-12
2.61438e-05
1.02765e-12
2.61438e-05
3.89952e-13
2.61438e-05
-5.55675e-13
2.61438e-05
-2.24396e-12
2.61438e-05
-4.84497e-12
-4.72237e-12
2.86464e-05
3.17243e-11
2.86464e-05
3.91064e-11
2.86464e-05
3.66565e-11
2.86464e-05
3.07386e-11
2.86464e-05
2.45426e-11
2.86464e-05
1.90472e-11
2.86464e-05
1.45163e-11
2.86464e-05
1.08896e-11
2.86464e-05
8.05161e-12
2.86464e-05
5.8525e-12
2.86464e-05
4.18109e-12
2.86464e-05
2.92181e-12
2.86464e-05
1.94705e-12
2.86464e-05
1.14204e-12
2.86464e-05
3.09062e-13
2.86464e-05
-8.57939e-13
2.86464e-05
-2.69595e-12
2.86464e-05
-5.72778e-12
2.86464e-05
-1.00267e-11
-9.42431e-12
3.11516e-05
3.81064e-11
3.11516e-05
4.69109e-11
3.11516e-05
4.24323e-11
3.11516e-05
3.42201e-11
3.11516e-05
2.63361e-11
3.11516e-05
1.97415e-11
3.11516e-05
1.45792e-11
3.11516e-05
1.06403e-11
3.11516e-05
7.68173e-12
3.11516e-05
5.46491e-12
3.11516e-05
3.81523e-12
3.11516e-05
2.58096e-12
3.11516e-05
1.59954e-12
3.11516e-05
7.22356e-13
3.11516e-05
-2.95806e-13
3.11516e-05
-1.8367e-12
3.11516e-05
-4.32893e-12
3.11516e-05
-8.37901e-12
3.11516e-05
-1.40847e-11
-1.31528e-11
3.36592e-05
4.16252e-11
3.36592e-05
5.10262e-11
3.36592e-05
4.46948e-11
3.36592e-05
3.48602e-11
3.36592e-05
2.60193e-11
3.36592e-05
1.89463e-11
3.36592e-05
1.3624e-11
3.36592e-05
9.70879e-12
3.36592e-05
6.86161e-12
3.36592e-05
4.78502e-12
3.36592e-05
3.26736e-12
3.36592e-05
2.14079e-12
3.36592e-05
1.22535e-12
3.36592e-05
3.58137e-13
3.36592e-05
-7.2586e-13
3.36592e-05
-2.44921e-12
3.36592e-05
-5.29593e-12
3.36592e-05
-9.94458e-12
3.36592e-05
-1.66537e-11
-1.55748e-11
3.6169e-05
4.17058e-11
3.6169e-05
5.06772e-11
3.6169e-05
4.28685e-11
3.6169e-05
3.23576e-11
3.6169e-05
2.34841e-11
3.6169e-05
1.66626e-11
3.6169e-05
1.17026e-11
3.6169e-05
8.16454e-12
3.6169e-05
5.66017e-12
3.6169e-05
3.87348e-12
3.6169e-05
2.58793e-12
3.6169e-05
1.64262e-12
3.6169e-05
8.59572e-13
3.6169e-05
8.12915e-14
3.6169e-05
-9.45533e-13
3.6169e-05
-2.64537e-12
3.6169e-05
-5.51322e-12
3.6169e-05
-1.02702e-11
3.6169e-05
-1.74643e-11
-1.64402e-11
3.86808e-05
3.80176e-11
3.86808e-05
4.54381e-11
3.86808e-05
3.68365e-11
3.86808e-05
2.68481e-11
3.86808e-05
1.89667e-11
3.86808e-05
1.31368e-11
3.86808e-05
9.03077e-12
3.86808e-05
6.18139e-12
3.86808e-05
4.21078e-12
3.86808e-05
2.82948e-12
3.86808e-05
1.84872e-12
3.86808e-05
1.13671e-12
3.86808e-05
5.35929e-13
3.86808e-05
-8.93326e-14
3.86808e-05
-9.49649e-13
3.86808e-05
-2.42945e-12
3.86808e-05
-4.98452e-12
3.86808e-05
-9.3214e-12
3.86808e-05
-1.63631e-11
-1.5599e-11
4.11943e-05
3.06322e-11
4.11943e-05
3.54947e-11
4.11943e-05
2.71811e-11
4.11944e-05
1.90481e-11
4.11944e-05
1.31087e-11
4.11944e-05
8.87466e-12
4.11944e-05
5.98217e-12
4.11944e-05
4.02542e-12
4.11944e-05
2.69888e-12
4.11944e-05
1.78039e-12
4.11944e-05
1.13507e-12
4.11944e-05
6.76138e-13
4.11944e-05
2.81661e-13
4.11944e-05
-1.50791e-13
4.11944e-05
-7.65871e-13
4.11944e-05
-1.86594e-12
4.11944e-05
-3.8145e-12
4.11944e-05
-7.21587e-12
4.11944e-05
-1.33521e-11
-1.30324e-11
4.37092e-05
2.02731e-11
4.37092e-05
2.20998e-11
4.37092e-05
1.5502e-11
4.37092e-05
1.03755e-11
4.37093e-05
6.96349e-12
4.37093e-05
4.60953e-12
4.37093e-05
3.04924e-12
4.37093e-05
2.02051e-12
4.37093e-05
1.33579e-12
4.37093e-05
8.63764e-13
4.37093e-05
5.34548e-13
4.37093e-05
3.08479e-13
4.37093e-05
1.09779e-13
4.37093e-05
-1.1898e-13
4.37093e-05
-4.53264e-13
4.37093e-05
-1.08365e-12
4.37093e-05
-2.2295e-12
4.37093e-05
-4.28251e-12
4.37093e-05
-8.66407e-12
-8.89395e-12
4.62251e-05
8.37913e-12
4.62251e-05
8.19861e-12
4.62251e-05
4.93076e-12
4.62251e-05
3.07534e-12
4.62251e-05
2.0074e-12
4.62251e-05
1.28521e-12
4.62252e-05
8.26839e-13
4.62252e-05
5.38168e-13
4.62252e-05
3.51357e-13
4.62252e-05
2.19799e-13
4.62252e-05
1.28446e-13
4.62252e-05
7.3664e-14
4.62252e-05
2.27733e-14
4.62252e-05
-4.17226e-14
4.62252e-05
-1.33594e-13
4.62252e-05
-3.24558e-13
4.62252e-05
-6.88122e-13
4.62251e-05
-1.35927e-12
4.62251e-05
-3.31183e-12
-3.78699e-12
4.87416e-05
4.87416e-05
4.87416e-05
4.87416e-05
4.87416e-05
4.87416e-05
4.87416e-05
4.87416e-05
4.87416e-05
4.87416e-05
4.87416e-05
4.87416e-05
4.87416e-05
4.87416e-05
4.87416e-05
4.87416e-05
4.87416e-05
4.87416e-05
4.87416e-05
)
;

boundaryField
{
    top
    {
        type            calculated;
        value           uniform 0;
    }
    bottom
    {
        type            calculated;
        value           uniform 0;
    }
    inlet
    {
        type            calculated;
        value           nonuniform List<scalar> 
20
(
-1.24162e-06
-3.7251e-06
-6.2092e-06
-8.69431e-06
-1.11808e-05
-1.3669e-05
-1.61592e-05
-1.86516e-05
-2.11464e-05
-2.36438e-05
-2.61438e-05
-2.86464e-05
-3.11516e-05
-3.36592e-05
-3.6169e-05
-3.86808e-05
-4.11943e-05
-4.37092e-05
-4.62251e-05
-4.87416e-05
)
;
    }
    outlet
    {
        type            calculated;
        value           nonuniform List<scalar> 
20
(
1.24163e-06
3.72511e-06
6.2092e-06
8.6943e-06
1.11808e-05
1.3669e-05
1.61591e-05
1.86515e-05
2.11464e-05
2.36438e-05
2.61438e-05
2.86464e-05
3.11516e-05
3.36592e-05
3.6169e-05
3.86808e-05
4.11944e-05
4.37092e-05
4.62251e-05
4.87416e-05
)
;
    }
    frontAndBack
    {
        type            empty;
        value           nonuniform List<scalar> 0();
    }
}


// ************************************************************************* //
