/*--------------------------------*- C++ -*----------------------------------*\
  =========                 |
  \\      /  F ield         | OpenFOAM: The Open Source CFD Toolbox
   \\    /   O peration     | Website:  https://openfoam.org
    \\  /    A nd           | Version:  9
     \\/     M anipulation  |
\*---------------------------------------------------------------------------*/
FoamFile
{
    format      ascii;
    class       volVectorField;
    location    "0.6";
    object      U;
}
// * * * * * * * * * * * * * * * * * * * * * * * * * * * * * * * * * * * * * //

dimensions      [0 1 -1 0 0 0 0];

internalField   nonuniform List<vector> 
400
(
(0.0248325 -3.65002e-08 0)
(0.0248326 -3.76796e-08 0)
(0.0248328 -1.75374e-08 0)
(0.0248328 -8.21228e-09 0)
(0.0248328 -4.00611e-09 0)
(0.0248328 -1.55471e-09 0)
(0.0248328 -4.2661e-10 0)
(0.0248328 3.95277e-10 0)
(0.0248328 4.41665e-10 0)
(0.0248328 9.62648e-11 0)
(0.0248328 4.14665e-10 0)
(0.0248328 7.06824e-10 0)
(0.0248328 6.20169e-10 0)
(0.0248328 6.07683e-10 0)
(0.0248328 1.06999e-09 0)
(0.0248328 2.28457e-09 0)
(0.0248328 4.53342e-09 0)
(0.0248328 8.88598e-09 0)
(0.0248327 2.00957e-08 0)
(0.0248326 2.19634e-08 0)
(0.0745021 -1.15497e-07 0)
(0.0745022 -1.2349e-07 0)
(0.0745025 -6.6236e-08 0)
(0.0745026 -3.28987e-08 0)
(0.0745026 -1.57825e-08 0)
(0.0745026 -5.69802e-09 0)
(0.0745026 -8.19277e-10 0)
(0.0745026 1.33167e-09 0)
(0.0745026 2.30033e-09 0)
(0.0745026 2.13384e-09 0)
(0.0745026 2.16855e-09 0)
(0.0745026 2.29142e-09 0)
(0.0745026 2.39746e-09 0)
(0.0745026 3.14698e-09 0)
(0.0745026 5.29606e-09 0)
(0.0745026 1.00669e-08 0)
(0.0745025 1.92892e-08 0)
(0.0745025 3.64651e-08 0)
(0.0745024 7.13571e-08 0)
(0.0745022 7.32533e-08 0)
(0.124184 -1.99485e-07 0)
(0.124184 -2.27878e-07 0)
(0.124184 -1.37532e-07 0)
(0.124184 -7.23435e-08 0)
(0.124185 -3.47979e-08 0)
(0.124185 -1.2485e-08 0)
(0.124185 -1.0015e-09 0)
(0.124185 4.34896e-09 0)
(0.124185 6.24852e-09 0)
(0.124185 5.93432e-09 0)
(0.124185 5.86286e-09 0)
(0.124185 5.90753e-09 0)
(0.124185 6.28611e-09 0)
(0.124184 8.26693e-09 0)
(0.124184 1.3429e-08 0)
(0.124184 2.43811e-08 0)
(0.124184 4.47903e-08 0)
(0.124184 7.97599e-08 0)
(0.124184 1.36447e-07 0)
(0.124184 1.29964e-07 0)
(0.173886 -2.51157e-07 0)
(0.173886 -2.95647e-07 0)
(0.173886 -1.89415e-07 0)
(0.173886 -1.01903e-07 0)
(0.173886 -4.75596e-08 0)
(0.173886 -1.47478e-08 0)
(0.173886 2.17943e-09 0)
(0.173886 9.43301e-09 0)
(0.173886 1.21508e-08 0)
(0.173886 1.16808e-08 0)
(0.173886 1.06868e-08 0)
(0.173886 1.00437e-08 0)
(0.173886 1.0582e-08 0)
(0.173886 1.37914e-08 0)
(0.173886 2.17574e-08 0)
(0.173886 3.8228e-08 0)
(0.173886 6.83888e-08 0)
(0.173886 1.17774e-07 0)
(0.173886 1.87142e-07 0)
(0.173886 1.71435e-07 0)
(0.223616 -2.64472e-07 0)
(0.223616 -3.17007e-07 0)
(0.223616 -2.10019e-07 0)
(0.223616 -1.12536e-07 0)
(0.223616 -4.91294e-08 0)
(0.223616 -1.05707e-08 0)
(0.223616 9.61876e-09 0)
(0.223616 1.77312e-08 0)
(0.223616 1.99066e-08 0)
(0.223616 1.84109e-08 0)
(0.223616 1.62756e-08 0)
(0.223616 1.47816e-08 0)
(0.223616 1.50612e-08 0)
(0.223616 1.88752e-08 0)
(0.223616 2.87092e-08 0)
(0.223616 4.88693e-08 0)
(0.223616 8.50068e-08 0)
(0.223616 1.41679e-07 0)
(0.223615 2.13697e-07 0)
(0.223616 1.9153e-07 0)
(0.27338 -2.42504e-07 0)
(0.273379 -2.93805e-07 0)
(0.273379 -1.95344e-07 0)
(0.273379 -9.99675e-08 0)
(0.273379 -3.60833e-08 0)
(0.273379 2.48568e-09 0)
(0.273379 2.2138e-08 0)
(0.273379 2.896e-08 0)
(0.273379 2.9294e-08 0)
(0.273379 2.603e-08 0)
(0.273379 2.2303e-08 0)
(0.273379 1.95708e-08 0)
(0.273379 1.90958e-08 0)
(0.273379 2.27307e-08 0)
(0.273379 3.30237e-08 0)
(0.273379 5.42019e-08 0)
(0.273379 9.15209e-08 0)
(0.273379 1.47933e-07 0)
(0.273379 2.14761e-07 0)
(0.273379 1.90185e-07 0)
(0.323183 -1.90184e-07 0)
(0.323183 -2.32184e-07 0)
(0.323183 -1.47792e-07 0)
(0.323183 -6.42656e-08 0)
(0.323183 -8.18718e-09 0)
(0.323183 2.45034e-08 0)
(0.323183 3.96099e-08 0)
(0.323183 4.27697e-08 0)
(0.323182 3.99317e-08 0)
(0.323182 3.41468e-08 0)
(0.323182 2.83701e-08 0)
(0.323182 2.40244e-08 0)
(0.323182 2.23231e-08 0)
(0.323182 2.49868e-08 0)
(0.323182 3.42706e-08 0)
(0.323182 5.37775e-08 0)
(0.323182 8.7764e-08 0)
(0.323182 1.37436e-07 0)
(0.323182 1.92985e-07 0)
(0.323183 1.69564e-07 0)
(0.373032 -1.13574e-07 0)
(0.373031 -1.39629e-07 0)
(0.373031 -7.25362e-08 0)
(0.373031 -8.36191e-09 0)
(0.373031 3.27299e-08 0)
(0.373031 5.41685e-08 0)
(0.373031 6.10684e-08 0)
(0.373031 5.83617e-08 0)
(0.373031 5.11453e-08 0)
(0.373031 4.21889e-08 0)
(0.373031 3.40066e-08 0)
(0.373031 2.77808e-08 0)
(0.373031 2.44827e-08 0)
(0.373031 2.54835e-08 0)
(0.373031 3.24485e-08 0)
(0.373031 4.79522e-08 0)
(0.373031 7.49132e-08 0)
(0.373031 1.1293e-07 0)
(0.373031 1.52958e-07 0)
(0.373031 1.33383e-07 0)
(0.422929 -1.99164e-08 0)
(0.422928 -2.51487e-08 0)
(0.422928 2.2771e-08 0)
(0.422928 6.22463e-08 0)
(0.422928 8.28785e-08 0)
(0.422927 8.8848e-08 0)
(0.422927 8.47048e-08 0)
(0.422927 7.44484e-08 0)
(0.422927 6.19963e-08 0)
(0.422927 4.94715e-08 0)
(0.422927 3.87273e-08 0)
(0.422927 3.05236e-08 0)
(0.422927 2.54205e-08 0)
(0.422927 2.42771e-08 0)
(0.422927 2.79683e-08 0)
(0.422927 3.77876e-08 0)
(0.422927 5.51633e-08 0)
(0.422927 7.8328e-08 0)
(0.422927 1.00194e-07 0)
(0.422928 8.61611e-08 0)
(0.472876 8.25919e-08 0)
(0.472876 1.01001e-07 0)
(0.472876 1.28699e-07 0)
(0.472876 1.40182e-07 0)
(0.472875 1.3695e-07 0)
(0.472875 1.24858e-07 0)
(0.472875 1.08037e-07 0)
(0.472875 8.93642e-08 0)
(0.472875 7.13722e-08 0)
(0.472875 5.52625e-08 0)
(0.472875 4.20669e-08 0)
(0.472875 3.20014e-08 0)
(0.472875 2.51024e-08 0)
(0.472875 2.16225e-08 0)
(0.472875 2.15484e-08 0)
(0.472875 2.47935e-08 0)
(0.472875 3.12739e-08 0)
(0.472875 3.80858e-08 0)
(0.472875 4.05611e-08 0)
(0.472876 3.28101e-08 0)
(0.522876 1.85202e-07 0)
(0.522876 2.27773e-07 0)
(0.522876 2.34695e-07 0)
(0.522876 2.16898e-07 0)
(0.522875 1.88671e-07 0)
(0.522875 1.57862e-07 0)
(0.522875 1.28197e-07 0)
(0.522875 1.01265e-07 0)
(0.522875 7.81109e-08 0)
(0.522875 5.88535e-08 0)
(0.522875 4.36269e-08 0)
(0.522875 3.20553e-08 0)
(0.522875 2.36085e-08 0)
(0.522875 1.79161e-08 0)
(0.522875 1.40828e-08 0)
(0.522875 1.06838e-08 0)
(0.522875 6.19257e-09 0)
(0.522875 -3.27124e-09 0)
(0.522875 -2.01438e-08 0)
(0.522876 -2.17087e-08 0)
(0.572929 2.7903e-07 0)
(0.572928 3.43803e-07 0)
(0.572928 3.29752e-07 0)
(0.572928 2.83425e-07 0)
(0.572928 2.3148e-07 0)
(0.572928 1.83399e-07 0)
(0.572928 1.42312e-07 0)
(0.572928 1.08386e-07 0)
(0.572928 8.11663e-08 0)
(0.572928 5.96621e-08 0)
(0.572928 4.31309e-08 0)
(0.572928 3.0636e-08 0)
(0.572928 2.11127e-08 0)
(0.572928 1.36291e-08 0)
(0.572928 6.51118e-09 0)
(0.572928 -2.841e-09 0)
(0.572928 -1.72522e-08 0)
(0.572928 -4.1497e-08 0)
(0.572928 -7.64919e-08 0)
(0.572928 -7.26508e-08 0)
(0.623032 3.55459e-07 0)
(0.623032 4.37892e-07 0)
(0.623032 4.0311e-07 0)
(0.623031 3.31193e-07 0)
(0.623031 2.59282e-07 0)
(0.623031 1.9748e-07 0)
(0.623031 1.47945e-07 0)
(0.623031 1.09332e-07 0)
(0.623031 7.97996e-08 0)
(0.623031 5.73471e-08 0)
(0.623031 4.04838e-08 0)
(0.623031 2.78217e-08 0)
(0.623031 1.78646e-08 0)
(0.623031 9.24974e-09 0)
(0.623031 -2.90174e-10 0)
(0.623031 -1.42681e-08 0)
(0.623031 -3.65858e-08 0)
(0.623032 -7.28802e-08 0)
(0.623032 -1.2364e-07 0)
(0.623032 -1.15703e-07 0)
(0.673184 4.06594e-07 0)
(0.673183 4.99579e-07 0)
(0.673183 4.45105e-07 0)
(0.673183 3.52978e-07 0)
(0.673183 2.67299e-07 0)
(0.673183 1.97249e-07 0)
(0.673183 1.4355e-07 0)
(0.673183 1.03386e-07 0)
(0.673183 7.37641e-08 0)
(0.673183 5.19146e-08 0)
(0.673183 3.58247e-08 0)
(0.673183 2.38338e-08 0)
(0.673183 1.41743e-08 0)
(0.673183 5.23355e-09 0)
(0.673183 -5.59772e-09 0)
(0.673184 -2.2411e-08 0)
(0.673184 -4.98754e-08 0)
(0.673184 -9.44478e-08 0)
(0.673184 -1.57508e-07 0)
(0.673184 -1.47168e-07 0)
(0.72338 4.25748e-07 0)
(0.72338 5.19851e-07 0)
(0.72338 4.48217e-07 0)
(0.72338 3.43963e-07 0)
(0.72338 2.52947e-07 0)
(0.72338 1.81599e-07 0)
(0.72338 1.28877e-07 0)
(0.72338 9.07377e-08 0)
(0.72338 6.34292e-08 0)
(0.72338 4.37783e-08 0)
(0.72338 2.95507e-08 0)
(0.72338 1.90334e-08 0)
(0.72338 1.03864e-08 0)
(0.72338 1.96031e-09 0)
(0.72338 -8.90682e-09 0)
(0.72338 -2.65136e-08 0)
(0.72338 -5.58827e-08 0)
(0.72338 -1.04132e-07 0)
(0.72338 -1.7491e-07 0)
(0.72338 -1.64116e-07 0)
(0.773616 4.08077e-07 0)
(0.773616 4.92171e-07 0)
(0.773616 4.08442e-07 0)
(0.773616 3.02955e-07 0)
(0.773617 2.16669e-07 0)
(0.773617 1.51667e-07 0)
(0.773617 1.05217e-07 0)
(0.773617 7.25878e-08 0)
(0.773617 4.98099e-08 0)
(0.773617 3.37484e-08 0)
(0.773617 2.22841e-08 0)
(0.773617 1.38866e-08 0)
(0.773617 6.84936e-09 0)
(0.773617 -3.07163e-10 0)
(0.773617 -9.99116e-09 0)
(0.773617 -2.63314e-08 0)
(0.773617 -5.41945e-08 0)
(0.773617 -1.00933e-07 0)
(0.773617 -1.7366e-07 0)
(0.773617 -1.64493e-07 0)
(0.823886 3.51037e-07 0)
(0.823886 4.1361e-07 0)
(0.823887 3.26714e-07 0)
(0.823887 2.333e-07 0)
(0.823887 1.62325e-07 0)
(0.823887 1.10926e-07 0)
(0.823887 7.53573e-08 0)
(0.823887 5.1044e-08 0)
(0.823887 3.44454e-08 0)
(0.823887 2.29214e-08 0)
(0.823887 1.47829e-08 0)
(0.823887 8.88865e-09 0)
(0.823887 3.85985e-09 0)
(0.823887 -1.44214e-09 0)
(0.823887 -8.91085e-09 0)
(0.823887 -2.213e-08 0)
(0.823887 -4.52103e-08 0)
(0.823887 -8.4884e-08 0)
(0.823887 -1.52373e-07 0)
(0.823887 -1.47008e-07 0)
(0.874184 2.58044e-07 0)
(0.874184 2.91057e-07 0)
(0.874185 2.14106e-07 0)
(0.874185 1.46426e-07 0)
(0.874185 9.92194e-08 0)
(0.874185 6.62365e-08 0)
(0.874185 4.41316e-08 0)
(0.874185 2.9437e-08 0)
(0.874185 1.95861e-08 0)
(0.874185 1.27575e-08 0)
(0.874185 7.96915e-09 0)
(0.874185 4.66913e-09 0)
(0.874185 1.79232e-09 0)
(0.874185 -1.54612e-09 0)
(0.874185 -6.31271e-09 0)
(0.874185 -1.50302e-08 0)
(0.874185 -3.07422e-08 0)
(0.874185 -5.85153e-08 0)
(0.874185 -1.12379e-07 0)
(0.874185 -1.12069e-07 0)
(0.924502 1.41795e-07 0)
(0.924502 1.47364e-07 0)
(0.924503 9.58055e-08 0)
(0.924503 6.12007e-08 0)
(0.924503 4.01426e-08 0)
(0.924503 2.60278e-08 0)
(0.924503 1.69211e-08 0)
(0.924503 1.10651e-08 0)
(0.924503 7.22926e-09 0)
(0.924503 4.57547e-09 0)
(0.924503 2.72871e-09 0)
(0.924503 1.50913e-09 0)
(0.924503 4.27699e-10 0)
(0.924503 -8.42169e-10 0)
(0.924503 -2.76782e-09 0)
(0.924503 -6.59174e-09 0)
(0.924503 -1.36946e-08 0)
(0.924503 -2.68311e-08 0)
(0.924503 -5.89938e-08 0)
(0.924503 -6.34591e-08 0)
(0.974832 4.20719e-08 0)
(0.974833 4.02655e-08 0)
(0.974833 2.22553e-08 0)
(0.974833 1.3001e-08 0)
(0.974833 8.23747e-09 0)
(0.974833 5.12972e-09 0)
(0.974833 3.25617e-09 0)
(0.974833 2.14345e-09 0)
(0.974833 1.41301e-09 0)
(0.974833 8.19847e-10 0)
(0.974833 3.94545e-10 0)
(0.974833 2.48221e-10 0)
(0.974833 9.87583e-11 0)
(0.974833 -2.77965e-10 0)
(0.974833 -7.59036e-10 0)
(0.974833 -1.71548e-09 0)
(0.974833 -3.56385e-09 0)
(0.974833 -6.96942e-09 0)
(0.974833 -1.7381e-08 0)
(0.974833 -1.93519e-08 0)
)
;

boundaryField
{
    top
    {
        type            fixedValue;
        value           uniform (1 0 0);
    }
    bottom
    {
        type            fixedValue;
        value           uniform (0 0 0);
    }
    inlet
    {
        type            zeroGradient;
    }
    outlet
    {
        type            zeroGradient;
    }
    frontAndBack
    {
        type            empty;
    }
}


// ************************************************************************* //
