/*--------------------------------*- C++ -*----------------------------------*\
  =========                 |
  \\      /  F ield         | OpenFOAM: The Open Source CFD Toolbox
   \\    /   O peration     | Website:  https://openfoam.org
    \\  /    A nd           | Version:  9
     \\/     M anipulation  |
\*---------------------------------------------------------------------------*/
FoamFile
{
    format      ascii;
    class       volScalarField;
    location    "1.2";
    object      p;
}
// * * * * * * * * * * * * * * * * * * * * * * * * * * * * * * * * * * * * * //

dimensions      [0 2 -2 0 0 0 0];

internalField   nonuniform List<scalar> 
400
(
3.82165e-07
6.33383e-07
6.12412e-07
5.82461e-07
5.33321e-07
4.75136e-07
4.14528e-07
3.52872e-07
2.91195e-07
2.30011e-07
1.69045e-07
1.07906e-07
4.64593e-08
-1.52685e-08
-7.72144e-08
-1.39498e-07
-2.00519e-07
-2.55883e-07
-3.25804e-07
-2.05835e-07
3.62444e-07
6.03439e-07
5.80603e-07
5.6341e-07
5.21774e-07
4.68185e-07
4.10521e-07
3.50649e-07
2.90021e-07
2.29445e-07
1.68829e-07
1.07916e-07
4.66749e-08
-1.47426e-08
-7.60431e-08
-1.37019e-07
-1.95306e-07
-2.43966e-07
-3.18022e-07
-2.00548e-07
3.66465e-07
6.061e-07
5.6286e-07
5.5118e-07
5.13567e-07
4.62774e-07
4.07199e-07
3.48698e-07
2.88913e-07
2.28836e-07
1.68524e-07
1.07823e-07
4.67756e-08
-1.4387e-08
-7.5231e-08
-1.3547e-07
-1.92652e-07
-2.38194e-07
-3.28239e-07
-2.07918e-07
3.80544e-07
6.3254e-07
5.59141e-07
5.4603e-07
5.09143e-07
4.59274e-07
4.048e-07
3.47141e-07
2.87917e-07
2.28199e-07
1.6813e-07
1.07613e-07
4.67242e-08
-1.42773e-08
-7.49213e-08
-1.35058e-07
-1.92643e-07
-2.38592e-07
-3.48926e-07
-2.19327e-07
3.95964e-07
6.69159e-07
5.62676e-07
5.44876e-07
5.06992e-07
4.56967e-07
4.02975e-07
3.45809e-07
2.86963e-07
2.27521e-07
1.67662e-07
1.07309e-07
4.65413e-08
-1.43793e-08
-7.50114e-08
-1.3543e-07
-1.94219e-07
-2.41962e-07
-3.72066e-07
-2.30165e-07
4.10204e-07
7.08726e-07
5.69813e-07
5.45887e-07
5.06203e-07
4.55379e-07
4.01477e-07
3.4459e-07
2.86016e-07
2.26805e-07
1.67136e-07
1.0693e-07
4.62521e-08
-1.46446e-08
-7.53757e-08
-1.36262e-07
-1.96551e-07
-2.46374e-07
-3.93287e-07
-2.38979e-07
4.22768e-07
7.47238e-07
5.78462e-07
5.47946e-07
5.06143e-07
4.54193e-07
4.00144e-07
3.43417e-07
2.85064e-07
2.26062e-07
1.66572e-07
1.06497e-07
4.5888e-08
-1.50159e-08
-7.58907e-08
-1.37268e-07
-1.99039e-07
-2.50655e-07
-4.10365e-07
-2.45513e-07
4.33159e-07
7.8141e-07
5.86931e-07
5.5007e-07
5.0624e-07
4.53114e-07
3.98835e-07
3.42231e-07
2.84092e-07
2.25298e-07
1.65985e-07
1.06038e-07
4.549e-08
-1.54214e-08
-7.64169e-08
-1.38171e-07
-2.01136e-07
-2.53926e-07
-4.21752e-07
-2.49522e-07
4.41064e-07
8.08688e-07
5.9385e-07
5.51498e-07
5.06044e-07
4.51926e-07
3.97455e-07
3.40999e-07
2.83097e-07
2.24527e-07
1.65397e-07
1.05582e-07
4.51048e-08
-1.57836e-08
-7.68189e-08
-1.38727e-07
-2.02405e-07
-2.55542e-07
-4.26573e-07
-2.50941e-07
4.46246e-07
8.27204e-07
5.98278e-07
5.51744e-07
5.05291e-07
4.5052e-07
3.95978e-07
3.39725e-07
2.82095e-07
2.23769e-07
1.64833e-07
1.0516e-07
4.47774e-08
-1.60327e-08
-7.6984e-08
-1.38754e-07
-2.02542e-07
-2.55129e-07
-4.24503e-07
-2.49787e-07
4.48538e-07
8.35744e-07
5.99692e-07
5.50619e-07
5.03909e-07
4.4891e-07
3.94447e-07
3.38458e-07
2.81126e-07
2.23053e-07
1.64316e-07
1.04798e-07
4.45428e-08
-1.61189e-08
-7.68409e-08
-1.38155e-07
-2.01403e-07
-2.52572e-07
-4.15704e-07
-2.46172e-07
4.47789e-07
8.33714e-07
5.9798e-07
5.48214e-07
5.02009e-07
4.47216e-07
3.92971e-07
3.37278e-07
2.80244e-07
2.22417e-07
1.63872e-07
1.04517e-07
4.44207e-08
-1.60216e-08
-7.6371e-08
-1.36928e-07
-1.99011e-07
-2.47991e-07
-4.00744e-07
-2.40265e-07
4.4386e-07
8.21173e-07
5.93454e-07
5.44884e-07
4.99864e-07
4.45646e-07
3.91702e-07
3.36291e-07
2.79518e-07
2.21898e-07
1.63522e-07
1.04327e-07
4.44115e-08
-1.57548e-08
-7.56159e-08
-1.35173e-07
-1.95553e-07
-2.41737e-07
-3.80569e-07
-2.32299e-07
4.36705e-07
7.98946e-07
5.86877e-07
5.41244e-07
4.97877e-07
4.44467e-07
3.90815e-07
3.35607e-07
2.79012e-07
2.21534e-07
1.63282e-07
1.04226e-07
4.44953e-08
-1.53677e-08
-7.46774e-08
-1.33091e-07
-1.91382e-07
-2.34381e-07
-3.5649e-07
-2.22595e-07
4.26347e-07
7.68716e-07
5.79507e-07
5.38117e-07
4.96547e-07
4.43962e-07
3.90474e-07
3.35321e-07
2.78779e-07
2.2135e-07
1.63159e-07
1.04201e-07
4.46345e-08
-1.49405e-08
-7.37101e-08
-1.30971e-07
-1.87001e-07
-2.26713e-07
-3.30184e-07
-2.1157e-07
4.13074e-07
7.33204e-07
5.72991e-07
5.36466e-07
4.9638e-07
4.44385e-07
3.90799e-07
3.3549e-07
2.78845e-07
2.21354e-07
1.63146e-07
1.04232e-07
4.47783e-08
-1.45738e-08
-7.29026e-08
-1.29164e-07
-1.8303e-07
-2.19689e-07
-3.03693e-07
-1.99768e-07
3.97111e-07
6.96151e-07
5.69465e-07
5.37259e-07
4.97844e-07
4.45908e-07
3.91845e-07
3.36121e-07
2.79202e-07
2.21535e-07
1.63229e-07
1.04288e-07
4.4869e-08
-1.43773e-08
-7.24563e-08
-1.28051e-07
-1.80172e-07
-2.14468e-07
-2.79415e-07
-1.87778e-07
3.80783e-07
6.64882e-07
5.72524e-07
5.42026e-07
5.0154e-07
4.48756e-07
3.93666e-07
3.37218e-07
2.79841e-07
2.21881e-07
1.63391e-07
1.04338e-07
4.48394e-08
-1.4482e-08
-7.26107e-08
-1.28097e-07
-1.79381e-07
-2.12904e-07
-2.61328e-07
-1.77204e-07
3.71532e-07
6.53103e-07
5.88822e-07
5.53297e-07
5.08528e-07
4.53305e-07
3.96392e-07
3.38818e-07
2.80778e-07
2.22402e-07
1.63636e-07
1.04367e-07
4.46423e-08
-1.49976e-08
-7.36095e-08
-1.29849e-07
-1.81925e-07
-2.1797e-07
-2.56453e-07
-1.73014e-07
3.83051e-07
6.72867e-07
6.18432e-07
5.70679e-07
5.18302e-07
4.59098e-07
3.99709e-07
3.40732e-07
2.81898e-07
2.23037e-07
1.63935e-07
1.04374e-07
4.4309e-08
-1.58433e-08
-7.5312e-08
-1.33079e-07
-1.87675e-07
-2.29568e-07
-2.69087e-07
-1.82644e-07
)
;

boundaryField
{
    top
    {
        type            zeroGradient;
    }
    bottom
    {
        type            zeroGradient;
    }
    inlet
    {
        type            fixedValue;
        value           uniform 0;
    }
    outlet
    {
        type            fixedValue;
        value           uniform 0;
    }
    frontAndBack
    {
        type            empty;
    }
}


// ************************************************************************* //
