/*--------------------------------*- C++ -*----------------------------------*\
  =========                 |
  \\      /  F ield         | OpenFOAM: The Open Source CFD Toolbox
   \\    /   O peration     | Website:  https://openfoam.org
    \\  /    A nd           | Version:  9
     \\/     M anipulation  |
\*---------------------------------------------------------------------------*/
FoamFile
{
    format      ascii;
    class       surfaceScalarField;
    location    "1.2";
    object      phi;
}
// * * * * * * * * * * * * * * * * * * * * * * * * * * * * * * * * * * * * * //

dimensions      [0 3 -1 0 0 0 0];

internalField   nonuniform List<scalar> 
760
(
1.24959e-06
-2.34031e-12
1.24959e-06
-1.94778e-12
1.24959e-06
-9.27591e-13
1.24959e-06
-5.27183e-13
1.24959e-06
-3.02339e-13
1.24959e-06
-1.65832e-13
1.2496e-06
-9.05065e-14
1.2496e-06
-4.69795e-14
1.2496e-06
-2.24721e-14
1.2496e-06
-9.72143e-15
1.2496e-06
-3.0558e-15
1.2496e-06
1.03405e-15
1.2496e-06
4.77145e-15
1.2496e-06
1.08201e-14
1.2496e-06
2.4358e-14
1.2496e-06
6.01503e-14
1.24959e-06
1.42291e-13
1.24959e-06
3.17355e-13
1.24959e-06
9.98041e-13
1.15231e-12
3.74879e-06
-5.63348e-12
3.74879e-06
-5.27938e-12
3.74879e-06
-3.01762e-12
3.7488e-06
-1.79502e-12
3.7488e-06
-1.05822e-12
3.7488e-06
-6.00874e-13
3.7488e-06
-3.34214e-13
3.7488e-06
-1.78355e-13
3.7488e-06
-8.89842e-14
3.7488e-06
-3.95614e-14
3.7488e-06
-1.24255e-14
3.7488e-06
3.87096e-15
3.7488e-06
1.79439e-14
3.7488e-06
3.99828e-14
3.7488e-06
8.82292e-14
3.7488e-06
2.04785e-13
3.7488e-06
4.65175e-13
3.7488e-06
9.95512e-13
3.74879e-06
2.42272e-12
2.56063e-12
6.24802e-06
-8.56766e-12
6.24802e-06
-8.59591e-12
6.24803e-06
-5.46257e-12
6.24803e-06
-3.38073e-12
6.24803e-06
-2.04633e-12
6.24803e-06
-1.18988e-12
6.24803e-06
-6.72212e-13
6.24803e-06
-3.64247e-13
6.24803e-06
-1.85085e-13
6.24803e-06
-8.38339e-14
6.24803e-06
-2.74216e-14
6.24803e-06
6.05165e-15
6.24803e-06
3.36699e-14
6.24803e-06
7.50916e-14
6.24803e-06
1.63478e-13
6.24803e-06
3.67473e-13
6.24803e-06
8.07321e-13
6.24803e-06
1.66308e-12
6.24803e-06
3.51661e-12
3.51927e-12
8.7473e-06
-1.0764e-11
8.7473e-06
-1.12113e-11
8.7473e-06
-7.62857e-12
8.74731e-06
-4.8917e-12
8.74731e-06
-3.03199e-12
8.74731e-06
-1.79761e-12
8.74731e-06
-1.02907e-12
8.74731e-06
-5.63815e-13
8.74731e-06
-2.89544e-13
8.74731e-06
-1.32657e-13
8.74731e-06
-4.4909e-14
8.74731e-06
6.10124e-15
8.74731e-06
4.56758e-14
8.74731e-06
1.01721e-13
8.74731e-06
2.18832e-13
8.74731e-06
4.82e-13
8.74731e-06
1.03537e-12
8.74731e-06
2.05941e-12
8.74731e-06
4.0184e-12
3.89693e-12
1.12466e-05
-1.19983e-11
1.12466e-05
-1.27757e-11
1.12467e-05
-9.12467e-12
1.12467e-05
-6.02526e-12
1.12467e-05
-3.81321e-12
1.12467e-05
-2.29797e-12
1.12467e-05
-1.33016e-12
1.12467e-05
-7.34407e-13
1.12467e-05
-3.79156e-13
1.12467e-05
-1.74473e-13
1.12467e-05
-6.03867e-14
1.12467e-05
3.70889e-15
1.12467e-05
4.90146e-14
1.12467e-05
1.08141e-13
1.12467e-05
2.30214e-13
1.12467e-05
5.02917e-13
1.12467e-05
1.06963e-12
1.12467e-05
2.07691e-12
1.12467e-05
3.86065e-12
3.65866e-12
1.37461e-05
-1.22108e-11
1.37461e-05
-1.317e-11
1.37461e-05
-9.74553e-12
1.37461e-05
-6.59027e-12
1.37461e-05
-4.24516e-12
1.37461e-05
-2.59335e-12
1.37461e-05
-1.51419e-12
1.37461e-05
-8.39637e-13
1.37461e-05
-4.33432e-13
1.37461e-05
-1.98585e-13
1.37461e-05
-6.91411e-14
1.37461e-05
-3.46392e-16
1.37461e-05
4.12033e-14
1.37461e-05
8.80034e-14
1.37461e-05
1.85819e-13
1.37461e-05
4.11216e-13
1.37461e-05
8.87222e-13
1.37461e-05
1.70783e-12
1.37461e-05
3.10465e-12
2.86943e-12
1.62456e-05
-1.14425e-11
1.62456e-05
-1.24185e-11
1.62456e-05
-9.43644e-12
1.62456e-05
-6.50264e-12
1.62456e-05
-4.25128e-12
1.62456e-05
-2.62588e-12
1.62456e-05
-1.54233e-12
1.62456e-05
-8.55369e-13
1.62456e-05
-4.38333e-13
1.62456e-05
-1.97359e-13
1.62456e-05
-6.74203e-14
1.62456e-05
-4.58358e-15
1.62456e-05
2.24641e-14
1.62456e-05
4.11486e-14
1.62456e-05
8.65342e-14
1.62456e-05
2.1298e-13
1.62456e-05
5.08981e-13
1.62456e-05
1.01175e-12
1.62456e-05
1.87269e-12
1.63986e-12
1.87452e-05
-9.81716e-12
1.87452e-05
-1.06534e-11
1.87452e-05
-8.25949e-12
1.87452e-05
-5.77634e-12
1.87452e-05
-3.82393e-12
1.87452e-05
-2.38261e-12
1.87452e-05
-1.4031e-12
1.87452e-05
-7.73547e-13
1.87452e-05
-3.8884e-13
1.87452e-05
-1.67863e-13
1.87452e-05
-5.34136e-14
1.87452e-05
-7.38564e-15
1.87452e-05
-4.64188e-15
1.87452e-05
-2.7066e-14
1.87452e-05
-5.58518e-14
1.87452e-05
-6.64523e-14
1.87452e-05
-1.30904e-14
1.87452e-05
8.70555e-14
1.87452e-05
3.23129e-13
1.13089e-13
2.1245e-05
-7.51545e-12
2.1245e-05
-8.0815e-12
2.1245e-05
-6.36814e-12
2.1245e-05
-4.50776e-12
2.1245e-05
-3.01906e-12
2.1245e-05
-1.89431e-12
2.1245e-05
-1.11322e-12
2.1245e-05
-6.03297e-13
2.1245e-05
-2.89945e-13
2.1245e-05
-1.1263e-13
2.1245e-05
-2.78525e-14
2.1245e-05
-7.56569e-15
2.1245e-05
-3.6013e-14
2.1245e-05
-1.07269e-13
2.1245e-05
-2.22019e-13
2.1245e-05
-3.89187e-13
2.1245e-05
-6.09387e-13
2.1245e-05
-9.48469e-13
2.1245e-05
-1.37386e-12
-1.55618e-12
2.37449e-05
-4.76142e-12
2.37449e-05
-4.96489e-12
2.37449e-05
-3.98331e-12
2.37449e-05
-2.8584e-12
2.37449e-05
-1.94487e-12
2.37449e-05
-1.22936e-12
2.37449e-05
-7.14315e-13
2.37449e-05
-3.69306e-13
2.37449e-05
-1.55887e-13
2.37449e-05
-3.9388e-14
2.37449e-05
5.92891e-15
2.37449e-05
-4.76718e-15
2.37449e-05
-6.69488e-14
2.37449e-05
-1.88032e-13
2.37449e-05
-3.88872e-13
2.37449e-05
-7.11842e-13
2.37449e-05
-1.20382e-12
2.37449e-05
-1.97329e-12
2.37449e-05
-3.04905e-12
-3.21105e-12
2.62449e-05
-1.80714e-12
2.62449e-05
-1.60229e-12
2.62449e-05
-1.37226e-12
2.62449e-05
-1.03477e-12
2.62449e-05
-7.46634e-13
2.62449e-05
-4.83128e-13
2.62449e-05
-2.66045e-13
2.62449e-05
-1.07622e-13
2.62449e-05
-7.71166e-15
2.62449e-05
4.02475e-14
2.62449e-05
4.25213e-14
2.62449e-05
4.06468e-16
2.62449e-05
-9.30233e-14
2.62449e-05
-2.57841e-13
2.62449e-05
-5.33291e-13
2.62449e-05
-9.91801e-13
2.62449e-05
-1.72331e-12
2.62449e-05
-2.87329e-12
2.62449e-05
-4.54491e-12
-4.70283e-12
2.8745e-05
1.08137e-12
2.8745e-05
1.68704e-12
2.8745e-05
1.17292e-12
2.8745e-05
7.338e-13
2.8745e-05
4.12247e-13
2.8745e-05
2.362e-13
2.8745e-05
1.63521e-13
2.8745e-05
1.40582e-13
2.8745e-05
1.3054e-13
2.8745e-05
1.12949e-13
2.8745e-05
7.54915e-14
2.8745e-05
6.57666e-15
2.8745e-05
-1.10755e-13
2.8745e-05
-3.06842e-13
2.8745e-05
-6.35372e-13
2.8745e-05
-1.19255e-12
2.8745e-05
-2.10525e-12
2.8745e-05
-3.55048e-12
2.8745e-05
-5.72319e-12
-5.89835e-12
3.12452e-05
3.63762e-12
3.12452e-05
4.57984e-12
3.12452e-05
3.35857e-12
3.12452e-05
2.21995e-12
3.12452e-05
1.37214e-12
3.12452e-05
8.24139e-13
3.12452e-05
5.09484e-13
3.12452e-05
3.36477e-13
3.12452e-05
2.36444e-13
3.12452e-05
1.66357e-13
3.12452e-05
9.87722e-14
3.12452e-05
1.20286e-14
3.12452e-05
-1.18016e-13
3.12452e-05
-3.28218e-13
3.12452e-05
-6.81068e-13
3.12452e-05
-1.28791e-12
3.12452e-05
-2.30347e-12
3.12452e-05
-3.9299e-12
3.12452e-05
-6.47125e-12
-6.68663e-12
3.37456e-05
5.61265e-12
3.37456e-05
6.76909e-12
3.37456e-05
4.91593e-12
3.37456e-05
3.22703e-12
3.37456e-05
2.00093e-12
3.37456e-05
1.19779e-12
3.37456e-05
7.22036e-13
3.37456e-05
4.51247e-13
3.37456e-05
2.93831e-13
3.37456e-05
1.91789e-13
3.37456e-05
1.08097e-13
3.37456e-05
1.5273e-14
3.37456e-05
-1.14201e-13
3.37456e-05
-3.19123e-13
3.37456e-05
-6.64109e-13
3.37456e-05
-1.26526e-12
3.37456e-05
-2.29317e-12
3.37456e-05
-3.9657e-12
3.37456e-05
-6.70833e-12
-6.98528e-12
3.62461e-05
6.78715e-12
3.62461e-05
7.98602e-12
3.62461e-05
5.63584e-12
3.62461e-05
3.62037e-12
3.62461e-05
2.21925e-12
3.62461e-05
1.31246e-12
3.62461e-05
7.77262e-13
3.62461e-05
4.72472e-13
3.62461e-05
2.96571e-13
3.62461e-05
1.86358e-13
3.62461e-05
1.02148e-13
3.62461e-05
1.5547e-14
3.62461e-05
-1.00218e-13
3.62461e-05
-2.81186e-13
3.62461e-05
-5.87177e-13
3.62461e-05
-1.12785e-12
3.62461e-05
-2.07482e-12
3.62461e-05
-3.64741e-12
3.62461e-05
-6.3918e-12
-6.74581e-12
3.87467e-05
7.00612e-12
3.87467e-05
8.04122e-12
3.87467e-05
5.40977e-12
3.87467e-05
3.36377e-12
3.87467e-05
2.0223e-12
3.87467e-05
1.17526e-12
3.87467e-05
6.84126e-13
3.87467e-05
4.07977e-13
3.87467e-05
2.50482e-13
3.87467e-05
1.54002e-13
3.87467e-05
8.30795e-14
3.87467e-05
1.30815e-14
3.87467e-05
-7.83894e-14
3.87467e-05
-2.20575e-13
3.87467e-05
-4.6235e-13
3.87467e-05
-8.96106e-13
3.87467e-05
-1.67774e-12
3.87467e-05
-3.00692e-12
3.87467e-05
-5.52918e-12
-5.9641e-12
4.12473e-05
6.19042e-12
4.12473e-05
6.86677e-12
4.12473e-05
4.29142e-12
4.12473e-05
2.55146e-12
4.12473e-05
1.49713e-12
4.12473e-05
8.50235e-13
4.12473e-05
4.86025e-13
4.12473e-05
2.85418e-13
4.12473e-05
1.72751e-13
4.12473e-05
1.04936e-13
4.12473e-05
5.62088e-14
4.12473e-05
9.00429e-15
4.12473e-05
-5.23171e-14
4.12473e-05
-1.47657e-13
4.12473e-05
-3.10681e-13
4.12473e-05
-6.07977e-13
4.12473e-05
-1.16275e-12
4.12473e-05
-2.12854e-12
4.12473e-05
-4.19144e-12
-4.68942e-12
4.3748e-05
4.42931e-12
4.3748e-05
4.63484e-12
4.3748e-05
2.5619e-12
4.3748e-05
1.43903e-12
4.3748e-05
8.21827e-13
4.3748e-05
4.53102e-13
4.3748e-05
2.53683e-13
4.3748e-05
1.47181e-13
4.3748e-05
8.83576e-14
4.3748e-05
5.35289e-14
4.3748e-05
2.88157e-14
4.3748e-05
4.83768e-15
4.3748e-05
-2.676e-14
4.3748e-05
-7.61489e-14
4.3748e-05
-1.60878e-13
4.3748e-05
-3.17889e-13
4.3748e-05
-6.24886e-13
4.3748e-05
-1.16266e-12
4.3748e-05
-2.55096e-12
-3.05237e-12
4.62488e-05
1.95724e-12
4.62488e-05
1.87625e-12
4.62488e-05
8.37382e-13
4.62488e-05
4.30982e-13
4.62488e-05
2.41654e-13
4.62488e-05
1.27072e-13
4.62488e-05
6.92028e-14
4.62488e-05
3.9805e-14
4.62488e-05
2.39327e-14
4.62488e-05
1.47292e-14
4.62488e-05
8.27571e-15
4.62488e-05
1.79033e-15
4.62488e-05
-7.35461e-15
4.62488e-05
-2.18392e-14
4.62488e-05
-4.63715e-14
4.62488e-05
-9.2541e-14
4.62488e-05
-1.8951e-13
4.62488e-05
-3.51177e-13
4.62488e-05
-9.3312e-13
-1.26357e-12
4.87496e-05
4.87496e-05
4.87496e-05
4.87496e-05
4.87496e-05
4.87496e-05
4.87496e-05
4.87496e-05
4.87496e-05
4.87496e-05
4.87496e-05
4.87496e-05
4.87496e-05
4.87496e-05
4.87496e-05
4.87496e-05
4.87496e-05
4.87496e-05
4.87496e-05
)
;

boundaryField
{
    top
    {
        type            calculated;
        value           uniform 0;
    }
    bottom
    {
        type            calculated;
        value           uniform 0;
    }
    inlet
    {
        type            calculated;
        value           nonuniform List<scalar> 
20
(
-1.24959e-06
-3.74879e-06
-6.24802e-06
-8.7473e-06
-1.12466e-05
-1.37461e-05
-1.62456e-05
-1.87452e-05
-2.1245e-05
-2.37449e-05
-2.62449e-05
-2.8745e-05
-3.12453e-05
-3.37456e-05
-3.62461e-05
-3.87467e-05
-4.12473e-05
-4.3748e-05
-4.62488e-05
-4.87496e-05
)
;
    }
    outlet
    {
        type            calculated;
        value           nonuniform List<scalar> 
20
(
1.24959e-06
3.74879e-06
6.24803e-06
8.74731e-06
1.12467e-05
1.37461e-05
1.62456e-05
1.87452e-05
2.1245e-05
2.37449e-05
2.62449e-05
2.8745e-05
3.12452e-05
3.37456e-05
3.62461e-05
3.87467e-05
4.12473e-05
4.3748e-05
4.62488e-05
4.87496e-05
)
;
    }
    frontAndBack
    {
        type            empty;
        value           nonuniform List<scalar> 0();
    }
}


// ************************************************************************* //
