/*--------------------------------*- C++ -*----------------------------------*\
  =========                 |
  \\      /  F ield         | OpenFOAM: The Open Source CFD Toolbox
   \\    /   O peration     | Website:  https://openfoam.org
    \\  /    A nd           | Version:  9
     \\/     M anipulation  |
\*---------------------------------------------------------------------------*/
FoamFile
{
    format      ascii;
    class       volVectorField;
    location    "1.2";
    object      U;
}
// * * * * * * * * * * * * * * * * * * * * * * * * * * * * * * * * * * * * * //

dimensions      [0 1 -1 0 0 0 0];

internalField   nonuniform List<vector> 
400
(
(0.0249918 -1.14521e-08 0)
(0.0249918 -9.16013e-09 0)
(0.0249919 -3.84606e-09 0)
(0.0249919 -2.04761e-09 0)
(0.0249919 -1.12815e-09 0)
(0.0249919 -5.96323e-10 0)
(0.0249919 -3.20015e-10 0)
(0.0249919 -1.58626e-10 0)
(0.0249919 -6.98917e-11 0)
(0.0249919 -2.81549e-11 0)
(0.0249919 -8.31839e-12 0)
(0.0249919 4.45946e-12 0)
(0.0249919 1.77582e-11 0)
(0.0249919 4.0297e-11 0)
(0.0249919 9.21956e-11 0)
(0.0249919 2.40876e-10 0)
(0.0249919 5.98014e-10 0)
(0.0249919 1.42438e-09 0)
(0.0249919 5.02924e-09 0)
(0.0249919 5.89945e-09 0)
(0.0749757 -3.94326e-08 0)
(0.0749758 -3.50581e-08 0)
(0.0749759 -1.82945e-08 0)
(0.0749759 -1.04952e-08 0)
(0.0749759 -6.05526e-09 0)
(0.0749759 -3.35948e-09 0)
(0.0749759 -1.83936e-09 0)
(0.0749759 -9.64401e-10 0)
(0.0749759 -4.68918e-10 0)
(0.074976 -2.02455e-10 0)
(0.074976 -5.97452e-11 0)
(0.074976 2.63105e-11 0)
(0.074976 1.03577e-10 0)
(0.0749759 2.29152e-10 0)
(0.0749759 5.1127e-10 0)
(0.0749759 1.22492e-09 0)
(0.0749759 2.85794e-09 0)
(0.0749759 6.34282e-09 0)
(0.0749759 1.72177e-08 0)
(0.0749759 1.8905e-08 0)
(0.12496 -7.17118e-08 0)
(0.12496 -6.96457e-08 0)
(0.12496 -4.20538e-08 0)
(0.124961 -2.54312e-08 0)
(0.124961 -1.51536e-08 0)
(0.124961 -8.69524e-09 0)
(0.124961 -4.8687e-09 0)
(0.124961 -2.61486e-09 0)
(0.124961 -1.31559e-09 0)
(0.124961 -5.90262e-10 0)
(0.124961 -1.88757e-10 0)
(0.124961 5.25195e-11 0)
(0.124961 2.59032e-10 0)
(0.124961 5.78072e-10 0)
(0.124961 1.26766e-09 0)
(0.124961 2.8917e-09 0)
(0.124961 6.45407e-09 0)
(0.124961 1.35699e-08 0)
(0.124961 3.04838e-08 0)
(0.124961 3.13539e-08 0)
(0.174946 -9.86642e-08 0)
(0.174946 -1.00911e-07 0)
(0.174946 -6.65194e-08 0)
(0.174946 -4.18742e-08 0)
(0.174946 -2.56217e-08 0)
(0.174946 -1.50303e-08 0)
(0.174946 -8.54078e-09 0)
(0.174946 -4.6533e-09 0)
(0.174946 -2.37889e-09 0)
(0.174946 -1.08505e-09 0)
(0.174946 -3.61216e-10 0)
(0.174946 6.63121e-11 0)
(0.174946 4.12314e-10 0)
(0.174946 9.2034e-10 0)
(0.174946 1.99161e-09 0)
(0.174946 4.42233e-09 0)
(0.174946 9.58629e-09 0)
(0.174946 1.93716e-08 0)
(0.174946 3.90461e-08 0)
(0.174946 3.85223e-08 0)
(0.224933 -1.16332e-07 0)
(0.224933 -1.22591e-07 0)
(0.224933 -8.56857e-08 0)
(0.224933 -5.57764e-08 0)
(0.224933 -3.49267e-08 0)
(0.224933 -2.08745e-08 0)
(0.224933 -1.20156e-08 0)
(0.224933 -6.6117e-09 0)
(0.224933 -3.4087e-09 0)
(0.224933 -1.56851e-09 0)
(0.224933 -5.38618e-10 0)
(0.224933 5.37554e-11 0)
(0.224933 4.98645e-10 0)
(0.224933 1.10922e-09 0)
(0.224933 2.37246e-09 0)
(0.224933 5.18517e-09 0)
(0.224933 1.1038e-08 0)
(0.224933 2.1623e-08 0)
(0.224933 4.0884e-08 0)
(0.224933 3.92562e-08 0)
(0.274922 -1.23577e-07 0)
(0.274922 -1.32521e-07 0)
(0.274922 -9.65981e-08 0)
(0.274922 -6.46166e-08 0)
(0.274922 -4.1274e-08 0)
(0.274922 -2.50531e-08 0)
(0.274922 -1.45714e-08 0)
(0.274922 -8.06971e-09 0)
(0.274922 -4.17302e-09 0)
(0.274922 -1.92196e-09 0)
(0.274922 -6.70918e-10 0)
(0.274922 1.82217e-11 0)
(0.274922 4.78526e-10 0)
(0.274922 1.04786e-09 0)
(0.274922 2.21942e-09 0)
(0.274922 4.84449e-09 0)
(0.274922 1.02945e-08 0)
(0.274922 1.97977e-08 0)
(0.274922 3.61058e-08 0)
(0.274922 3.38894e-08 0)
(0.324912 -1.20583e-07 0)
(0.324912 -1.3055e-07 0)
(0.324912 -9.81428e-08 0)
(0.324912 -6.70904e-08 0)
(0.324912 -4.35719e-08 0)
(0.324912 -2.67845e-08 0)
(0.324912 -1.56983e-08 0)
(0.324912 -8.71711e-09 0)
(0.324912 -4.49415e-09 0)
(0.324912 -2.05046e-09 0)
(0.324912 -7.13683e-10 0)
(0.324912 -2.77475e-11 0)
(0.324912 3.41419e-10 0)
(0.324912 7.05031e-10 0)
(0.324912 1.48299e-09 0)
(0.324912 3.35216e-09 0)
(0.324912 7.39528e-09 0)
(0.324912 1.42708e-08 0)
(0.324912 2.58321e-08 0)
(0.324912 2.3473e-08 0)
(0.374905 -1.0823e-07 0)
(0.374905 -1.17564e-07 0)
(0.374905 -9.04486e-08 0)
(0.374905 -6.28859e-08 0)
(0.374905 -4.14085e-08 0)
(0.374905 -2.57113e-08 0)
(0.374905 -1.51386e-08 0)
(0.374905 -8.38692e-09 0)
(0.374905 -4.27221e-09 0)
(0.374905 -1.89792e-09 0)
(0.374905 -6.36796e-10 0)
(0.374905 -6.69021e-11 0)
(0.374905 1.03211e-10 0)
(0.374905 1.10171e-10 0)
(0.374905 2.34113e-10 0)
(0.374905 8.82867e-10 0)
(0.374905 2.74053e-09 0)
(0.374905 5.89945e-09 0)
(0.374905 1.1534e-08 0)
(0.374905 9.31762e-09 0)
(0.4249 -8.80852e-08 0)
(0.4249 -9.53155e-08 0)
(0.4249 -7.46469e-08 0)
(0.4249 -5.25922e-08 0)
(0.4249 -3.50436e-08 0)
(0.4249 -2.19302e-08 0)
(0.4249 -1.29206e-08 0)
(0.4249 -7.08456e-09 0)
(0.4249 -3.50631e-09 0)
(0.4249 -1.46143e-09 0)
(0.4249 -4.33857e-10 0)
(0.4249 -8.38452e-11 0)
(0.4249 -2.00468e-10 0)
(0.4249 -6.58471e-10 0)
(0.4249 -1.36242e-09 0)
(0.4249 -2.23e-09 0)
(0.4249 -3.03223e-09 0)
(0.4249 -4.19551e-09 0)
(0.4249 -5.10406e-09 0)
(0.4249 -7.05321e-09 0)
(0.474898 -6.22037e-08 0)
(0.474897 -6.61928e-08 0)
(0.474897 -5.26633e-08 0)
(0.474897 -3.75439e-08 0)
(0.474897 -2.53303e-08 0)
(0.474897 -1.59572e-08 0)
(0.474897 -9.34834e-09 0)
(0.474897 -4.98608e-09 0)
(0.474897 -2.29645e-09 0)
(0.474897 -7.94162e-10 0)
(0.474897 -1.2573e-10 0)
(0.474897 -7.01384e-11 0)
(0.474897 -5.23284e-10 0)
(0.474897 -1.4919e-09 0)
(0.474897 -3.08511e-09 0)
(0.474897 -5.56353e-09 0)
(0.474897 -9.16966e-09 0)
(0.474897 -1.47856e-08 0)
(0.474897 -2.2357e-08 0)
(0.474897 -2.40576e-08 0)
(0.524898 -3.30066e-08 0)
(0.524897 -3.30454e-08 0)
(0.524897 -2.69916e-08 0)
(0.524897 -1.96333e-08 0)
(0.524897 -1.35782e-08 0)
(0.524897 -8.64216e-09 0)
(0.524897 -4.94877e-09 0)
(0.524897 -2.40827e-09 0)
(0.524897 -8.26904e-10 0)
(0.524897 2.73166e-12 0)
(0.524897 2.41834e-10 0)
(0.524897 -2.71591e-11 0)
(0.524897 -8.17657e-10 0)
(0.524897 -2.27081e-09 0)
(0.524897 -4.6942e-09 0)
(0.524897 -8.67348e-09 0)
(0.524897 -1.49047e-08 0)
(0.524897 -2.46681e-08 0)
(0.524897 -3.85669e-08 0)
(0.524897 -4.01444e-08 0)
(0.5749 -3.11946e-09 0)
(0.5749 9.93811e-10 0)
(0.5749 -4.84899e-10 0)
(0.5749 -1.09784e-09 0)
(0.5749 -1.38184e-09 0)
(0.5749 -1.04121e-09 0)
(0.5749 -3.87511e-10 0)
(0.5749 2.45339e-10 0)
(0.5749 6.66067e-10 0)
(0.5749 7.98294e-10 0)
(0.5749 6.06436e-10 0)
(0.5749 3.42951e-11 0)
(0.5749 -1.04285e-09 0)
(0.5749 -2.88461e-09 0)
(0.5749 -5.96745e-09 0)
(0.5749 -1.11525e-08 0)
(0.5749 -1.95427e-08 0)
(0.5749 -3.27628e-08 0)
(0.5749 -5.22367e-08 0)
(0.5749 -5.38864e-08 0)
(0.624905 2.47529e-08 0)
(0.624905 3.26643e-08 0)
(0.624905 2.38668e-08 0)
(0.624905 1.57123e-08 0)
(0.624905 9.58639e-09 0)
(0.624905 5.73847e-09 0)
(0.624905 3.64057e-09 0)
(0.624905 2.55523e-09 0)
(0.624905 1.93817e-09 0)
(0.624905 1.45708e-09 0)
(0.624905 9.0185e-10 0)
(0.624905 9.73494e-11 0)
(0.624905 -1.17026e-09 0)
(0.624905 -3.24729e-09 0)
(0.624905 -6.72975e-09 0)
(0.624905 -1.26783e-08 0)
(0.624905 -2.25268e-08 0)
(0.624905 -3.81893e-08 0)
(0.624905 -6.20953e-08 0)
(0.624905 -6.40457e-08 0)
(0.674912 4.79981e-08 0)
(0.674912 5.87639e-08 0)
(0.674912 4.31783e-08 0)
(0.674912 2.86042e-08 0)
(0.674912 1.78062e-08 0)
(0.674912 1.0716e-08 0)
(0.674912 6.53251e-09 0)
(0.674912 4.16485e-09 0)
(0.674912 2.78544e-09 0)
(0.674912 1.86751e-09 0)
(0.674912 1.07294e-09 0)
(0.674912 1.44457e-10 0)
(0.674912 -1.18626e-09 0)
(0.674912 -3.30904e-09 0)
(0.674912 -6.87613e-09 0)
(0.674912 -1.30507e-08 0)
(0.674912 -2.34922e-08 0)
(0.674912 -4.03296e-08 0)
(0.674912 -6.71616e-08 0)
(0.674912 -6.96417e-08 0)
(0.724922 6.4222e-08 0)
(0.724922 7.6345e-08 0)
(0.724922 5.49753e-08 0)
(0.724922 3.58397e-08 0)
(0.724922 2.21617e-08 0)
(0.724922 1.32143e-08 0)
(0.724922 7.89626e-09 0)
(0.724922 4.85427e-09 0)
(0.724922 3.08862e-09 0)
(0.724922 1.96742e-09 0)
(0.724922 1.08948e-09 0)
(0.724922 1.63224e-10 0)
(0.724922 -1.09266e-09 0)
(0.724922 -3.06334e-09 0)
(0.724922 -6.38714e-09 0)
(0.724922 -1.22193e-08 0)
(0.724922 -2.23092e-08 0)
(0.724922 -3.88884e-08 0)
(0.724922 -6.68004e-08 0)
(0.724922 -7.00053e-08 0)
(0.774933 7.14959e-08 0)
(0.774933 8.30005e-08 0)
(0.774933 5.75272e-08 0)
(0.774933 3.64708e-08 0)
(0.774933 2.21764e-08 0)
(0.774933 1.30178e-08 0)
(0.774933 7.64349e-09 0)
(0.774933 4.59451e-09 0)
(0.774933 2.84346e-09 0)
(0.774933 1.76087e-09 0)
(0.774933 9.55047e-10 0)
(0.774933 1.50605e-10 0)
(0.774933 -9.05943e-10 0)
(0.774933 -2.54938e-09 0)
(0.774933 -5.33621e-09 0)
(0.774933 -1.02995e-08 0)
(0.774933 -1.91168e-08 0)
(0.774933 -3.39438e-08 0)
(0.774933 -6.07949e-08 0)
(0.774933 -6.48479e-08 0)
(0.824946 6.83556e-08 0)
(0.824946 7.70898e-08 0)
(0.824946 5.03078e-08 0)
(0.824946 3.06509e-08 0)
(0.824946 1.82093e-08 0)
(0.824946 1.04649e-08 0)
(0.824946 6.03359e-09 0)
(0.824946 3.56465e-09 0)
(0.824946 2.16727e-09 0)
(0.824946 1.32041e-09 0)
(0.824946 7.08244e-10 0)
(0.824946 1.14271e-10 0)
(0.824946 -6.55083e-10 0)
(0.824946 -1.84901e-09 0)
(0.824946 -3.8868e-09 0)
(0.824946 -7.57604e-09 0)
(0.824946 -1.43422e-08 0)
(0.824946 -2.60087e-08 0)
(0.824946 -4.939e-08 0)
(0.824946 -5.4263e-08 0)
(0.87496 5.45824e-08 0)
(0.87496 5.88736e-08 0)
(0.874961 3.48541e-08 0)
(0.874961 2.0125e-08 0)
(0.874961 1.1627e-08 0)
(0.874961 6.50214e-09 0)
(0.874961 3.6739e-09 0)
(0.874961 2.1399e-09 0)
(0.874961 1.2861e-09 0)
(0.874961 7.77144e-10 0)
(0.874961 4.15472e-10 0)
(0.874961 6.71992e-11 0)
(0.874961 -3.86551e-10 0)
(0.874961 -1.09313e-09 0)
(0.874961 -2.30239e-09 0)
(0.874961 -4.52852e-09 0)
(0.874961 -8.786e-09 0)
(0.874961 -1.62642e-08 0)
(0.874961 -3.37358e-08 0)
(0.87496 -3.89978e-08 0)
(0.924976 3.23996e-08 0)
(0.924976 3.26174e-08 0)
(0.924976 1.63765e-08 0)
(0.924976 8.69498e-09 0)
(0.924976 4.86013e-09 0)
(0.924976 2.60562e-09 0)
(0.924976 1.43109e-09 0)
(0.924976 8.22841e-10 0)
(0.924976 4.92578e-10 0)
(0.924976 2.99736e-10 0)
(0.924976 1.63767e-10 0)
(0.924976 2.97123e-11 0)
(0.924976 -1.51779e-10 0)
(0.924976 -4.37936e-10 0)
(0.924976 -9.2929e-10 0)
(0.924976 -1.85221e-09 0)
(0.924976 -3.72472e-09 0)
(0.924976 -6.99905e-09 0)
(0.924976 -1.6853e-08 0)
(0.924976 -2.12647e-08 0)
(0.974992 1.00072e-08 0)
(0.974992 9.35165e-09 0)
(0.974992 3.72862e-09 0)
(0.974992 1.73177e-09 0)
(0.974992 9.29792e-10 0)
(0.974992 4.63514e-10 0)
(0.974992 2.43663e-10 0)
(0.974992 1.38392e-10 0)
(0.974992 8.27459e-11 0)
(0.974992 5.07075e-11 0)
(0.974992 2.82649e-11 0)
(0.974992 4.53928e-12 0)
(0.974992 -3.15508e-11 0)
(0.974992 -8.98845e-11 0)
(0.974992 -1.85304e-10 0)
(0.974992 -3.67371e-10 0)
(0.974992 -7.77549e-10 0)
(0.974992 -1.463e-09 0)
(0.974992 -4.38708e-09 0)
(0.974992 -6.13457e-09 0)
)
;

boundaryField
{
    top
    {
        type            fixedValue;
        value           uniform (1 0 0);
    }
    bottom
    {
        type            fixedValue;
        value           uniform (0 0 0);
    }
    inlet
    {
        type            zeroGradient;
    }
    outlet
    {
        type            zeroGradient;
    }
    frontAndBack
    {
        type            empty;
    }
}


// ************************************************************************* //
