/*--------------------------------*- C++ -*----------------------------------*\
  =========                 |
  \\      /  F ield         | OpenFOAM: The Open Source CFD Toolbox
   \\    /   O peration     | Website:  https://openfoam.org
    \\  /    A nd           | Version:  9
     \\/     M anipulation  |
\*---------------------------------------------------------------------------*/
FoamFile
{
    format      ascii;
    class       volScalarField;
    location    "2.7";
    object      p;
}
// * * * * * * * * * * * * * * * * * * * * * * * * * * * * * * * * * * * * * //

dimensions      [0 2 -2 0 0 0 0];

internalField   nonuniform List<scalar> 
400
(
3.98847e-09
6.61011e-09
6.39183e-09
6.07981e-09
5.5675e-09
4.96076e-09
4.32868e-09
3.68561e-09
3.04226e-09
2.40404e-09
1.76806e-09
1.13023e-09
4.89092e-10
-1.55083e-10
-8.01625e-10
-1.45177e-09
-2.08881e-09
-2.66689e-09
-3.39688e-09
-2.14604e-09
3.78257e-09
6.29747e-09
6.05976e-09
5.88083e-09
5.44679e-09
4.88796e-09
4.28657e-09
3.66207e-09
3.02963e-09
2.39772e-09
1.76538e-09
1.12988e-09
4.90886e-10
-1.50045e-10
-7.89843e-10
-1.42632e-09
-2.0348e-09
-2.54292e-09
-3.31596e-09
-2.09102e-09
3.82444e-09
6.32502e-09
5.87439e-09
5.75295e-09
5.36085e-09
4.83116e-09
4.25153e-09
3.64131e-09
3.01764e-09
2.39093e-09
1.76176e-09
1.12848e-09
4.91512e-10
-1.46739e-10
-7.81741e-10
-1.41049e-09
-2.0074e-09
-2.48294e-09
-3.42274e-09
-2.16797e-09
3.97128e-09
6.60072e-09
5.83537e-09
5.69897e-09
5.31438e-09
4.79431e-09
4.22613e-09
3.62467e-09
3.00685e-09
2.38387e-09
1.75722e-09
1.12587e-09
4.90564e-10
-1.45985e-10
-7.78868e-10
-1.4065e-09
-2.00757e-09
-2.48731e-09
-3.63871e-09
-2.28703e-09
4.13211e-09
6.98266e-09
5.87206e-09
5.68666e-09
5.29164e-09
4.76991e-09
4.20674e-09
3.6104e-09
2.99649e-09
2.37637e-09
1.75191e-09
1.12226e-09
4.88236e-10
-1.47445e-10
-7.8017e-10
-1.41071e-09
-2.02429e-09
-2.52269e-09
-3.88027e-09
-2.40018e-09
4.2806e-09
7.39537e-09
5.94633e-09
5.69695e-09
5.28311e-09
4.753e-09
4.19075e-09
3.59729e-09
2.9862e-09
2.36847e-09
1.74599e-09
1.11787e-09
4.84794e-10
-1.50615e-10
-7.84337e-10
-1.41971e-09
-2.0489e-09
-2.56894e-09
-4.10182e-09
-2.49223e-09
4.4116e-09
7.79707e-09
6.03637e-09
5.71817e-09
5.28217e-09
4.74028e-09
4.17646e-09
3.58466e-09
2.97586e-09
2.36029e-09
1.73965e-09
1.11291e-09
4.80566e-10
-1.54892e-10
-7.90077e-10
-1.43053e-09
-2.07512e-09
-2.61383e-09
-4.28017e-09
-2.56054e-09
4.51989e-09
8.1535e-09
6.12454e-09
5.74008e-09
5.28289e-09
4.72869e-09
4.16244e-09
3.57188e-09
2.96529e-09
2.35189e-09
1.73309e-09
1.10768e-09
4.75982e-10
-1.59529e-10
-7.95936e-10
-1.44028e-09
-2.09729e-09
-2.64818e-09
-4.39918e-09
-2.60255e-09
4.60224e-09
8.43802e-09
6.19654e-09
5.75473e-09
5.28056e-09
4.71596e-09
4.14767e-09
3.55863e-09
2.95449e-09
2.34341e-09
1.72651e-09
1.10247e-09
4.71531e-10
-1.63715e-10
-8.00503e-10
-1.44641e-09
-2.11081e-09
-2.66528e-09
-4.44971e-09
-2.61756e-09
4.65618e-09
8.63111e-09
6.24257e-09
5.75706e-09
5.27242e-09
4.70097e-09
4.13189e-09
3.54494e-09
2.94362e-09
2.33506e-09
1.72018e-09
1.09763e-09
4.67681e-10
-1.66725e-10
-8.02602e-10
-1.44703e-09
-2.11254e-09
-2.66123e-09
-4.42836e-09
-2.60576e-09
4.67995e-09
8.72011e-09
6.25716e-09
5.7451e-09
5.25773e-09
4.68385e-09
4.11556e-09
3.53132e-09
2.93308e-09
2.32716e-09
1.71434e-09
1.09342e-09
4.648e-10
-1.68037e-10
-8.01491e-10
-1.44113e-09
-2.10097e-09
-2.63481e-09
-4.33681e-09
-2.56829e-09
4.672e-09
8.69884e-09
6.23914e-09
5.71979e-09
5.23764e-09
4.66587e-09
4.0998e-09
3.51862e-09
2.92347e-09
2.32008e-09
1.70927e-09
1.09004e-09
4.63094e-10
-1.67437e-10
-7.96976e-10
-1.42868e-09
-2.07633e-09
-2.5873e-09
-4.181e-09
-2.50689e-09
4.63088e-09
8.5679e-09
6.19176e-09
5.68485e-09
5.21501e-09
4.64918e-09
4.08621e-09
3.50794e-09
2.91548e-09
2.31425e-09
1.70519e-09
1.08762e-09
4.62566e-10
-1.65068e-10
-7.89487e-10
-1.41073e-09
-2.04057e-09
-2.52232e-09
-3.97075e-09
-2.42401e-09
4.55612e-09
8.33588e-09
6.12299e-09
5.64667e-09
5.19402e-09
4.63659e-09
4.07661e-09
3.50042e-09
2.90979e-09
2.31003e-09
1.70225e-09
1.08613e-09
4.63012e-10
-1.61444e-10
-7.80089e-10
-1.38936e-09
-1.99737e-09
-2.44586e-09
-3.71977e-09
-2.32295e-09
4.44794e-09
8.02036e-09
6.04594e-09
5.61383e-09
5.1799e-09
4.63102e-09
4.07271e-09
3.49705e-09
2.90696e-09
2.30768e-09
1.70053e-09
1.08544e-09
4.64039e-10
-1.57401e-10
-7.70389e-10
-1.36761e-09
-1.95199e-09
-2.36612e-09
-3.44555e-09
-2.20807e-09
4.30938e-09
7.64971e-09
5.97779e-09
5.5964e-09
5.1779e-09
4.63513e-09
4.07577e-09
3.49844e-09
2.90724e-09
2.30731e-09
1.69998e-09
1.08533e-09
4.6512e-10
-1.53982e-10
-7.62352e-10
-1.34912e-09
-1.91089e-09
-2.29311e-09
-3.16935e-09
-2.08506e-09
4.14275e-09
7.26296e-09
5.94083e-09
5.60446e-09
5.19292e-09
4.65072e-09
4.08635e-09
3.50466e-09
2.91059e-09
2.3088e-09
1.70043e-09
1.08551e-09
4.65658e-10
-1.52329e-10
-7.58073e-10
-1.33786e-09
-1.88137e-09
-2.23888e-09
-2.91623e-09
-1.96003e-09
3.97233e-09
6.93655e-09
5.97256e-09
5.65399e-09
5.23123e-09
4.68015e-09
4.10502e-09
3.51575e-09
2.91688e-09
2.31201e-09
1.70172e-09
1.08562e-09
4.64943e-10
-1.53818e-10
-7.60059e-10
-1.33868e-09
-1.87342e-09
-2.22282e-09
-2.72769e-09
-1.84975e-09
3.87574e-09
6.81345e-09
6.14242e-09
5.77137e-09
5.30388e-09
4.72732e-09
4.13313e-09
3.5321e-09
2.92627e-09
2.31706e-09
1.70386e-09
1.0855e-09
4.62462e-10
-1.59611e-10
-7.70872e-10
-1.35732e-09
-1.90028e-09
-2.27595e-09
-2.67703e-09
-1.80609e-09
3.99577e-09
7.0194e-09
6.45107e-09
5.95241e-09
5.40553e-09
4.7874e-09
4.16735e-09
3.55166e-09
2.93753e-09
2.32325e-09
1.70655e-09
1.08516e-09
4.58591e-10
-1.68801e-10
-7.88967e-10
-1.3913e-09
-1.96051e-09
-2.39715e-09
-2.80904e-09
-1.90667e-09
)
;

boundaryField
{
    top
    {
        type            zeroGradient;
    }
    bottom
    {
        type            zeroGradient;
    }
    inlet
    {
        type            fixedValue;
        value           uniform 0;
    }
    outlet
    {
        type            fixedValue;
        value           uniform 0;
    }
    frontAndBack
    {
        type            empty;
    }
}


// ************************************************************************* //
