/*--------------------------------*- C++ -*----------------------------------*\
  =========                 |
  \\      /  F ield         | OpenFOAM: The Open Source CFD Toolbox
   \\    /   O peration     | Website:  https://openfoam.org
    \\  /    A nd           | Version:  9
     \\/     M anipulation  |
\*---------------------------------------------------------------------------*/
FoamFile
{
    format      ascii;
    class       surfaceScalarField;
    location    "2.7";
    object      phi;
}
// * * * * * * * * * * * * * * * * * * * * * * * * * * * * * * * * * * * * * //

dimensions      [0 3 -1 0 0 0 0];

internalField   nonuniform List<scalar> 
760
(
1.25e-06
-2.4428e-14
1.25e-06
-2.03288e-14
1.25e-06
-9.68378e-15
1.25e-06
-5.50623e-15
1.25e-06
-3.16072e-15
1.25e-06
-1.73709e-15
1.25e-06
-9.51976e-16
1.25e-06
-4.98529e-16
1.25e-06
-2.43393e-16
1.25e-06
-1.10847e-16
1.25e-06
-4.16243e-17
1.25e-06
9.07789e-19
1.25e-06
4.00589e-17
1.25e-06
1.03525e-16
1.25e-06
2.45309e-16
1.25e-06
6.1947e-16
1.25e-06
1.47724e-15
1.25e-06
3.30413e-15
1.25e-06
1.0405e-14
1.20108e-14
3.74999e-06
-5.88053e-14
3.74999e-06
-5.51056e-14
3.74999e-06
-3.15064e-14
3.74999e-06
-1.87511e-14
3.74999e-06
-1.10656e-14
3.74999e-06
-6.29642e-15
3.74999e-06
-3.51714e-15
3.74999e-06
-1.89374e-15
3.74999e-06
-9.6362e-16
3.74999e-06
-4.49763e-16
3.74999e-06
-1.6773e-16
3.74999e-06
2.02338e-18
3.74999e-06
1.49449e-16
3.74999e-06
3.80806e-16
3.74999e-06
8.86362e-16
3.74999e-06
2.10524e-15
3.74999e-06
4.8251e-15
3.74999e-06
1.03607e-14
3.74999e-06
2.52506e-14
2.66855e-14
6.24998e-06
-8.94404e-14
6.24998e-06
-8.97321e-14
6.24998e-06
-5.70407e-14
6.24998e-06
-3.53225e-14
6.24998e-06
-2.14045e-14
6.24998e-06
-1.24745e-14
6.24998e-06
-7.07966e-15
6.24998e-06
-3.87247e-15
6.24998e-06
-2.00824e-15
6.24998e-06
-9.55621e-16
6.24998e-06
-3.6925e-16
6.24998e-06
-2.04396e-17
6.24998e-06
2.69101e-16
6.24998e-06
7.04423e-16
6.24998e-06
1.63144e-15
6.24998e-06
3.76607e-15
6.24998e-06
8.36231e-15
6.24998e-06
1.72972e-14
6.24998e-06
3.66388e-14
3.66661e-14
8.74997e-06
-1.12379e-13
8.74997e-06
-1.17047e-13
8.74997e-06
-7.96703e-14
8.74997e-06
-5.11211e-14
8.74997e-06
-3.17263e-14
8.74997e-06
-1.88575e-14
8.74997e-06
-1.08494e-14
8.74997e-06
-6.0052e-15
8.74997e-06
-3.15206e-15
8.74997e-06
-1.52147e-15
8.74997e-06
-6.0953e-16
8.74997e-06
-7.79135e-17
8.74997e-06
3.37442e-16
8.74997e-06
9.27635e-16
8.74997e-06
2.15784e-15
8.74997e-06
4.91447e-15
8.74997e-06
1.07008e-14
8.74997e-06
2.13975e-14
8.74997e-06
4.18462e-14
4.05845e-14
1.125e-05
-1.25279e-13
1.125e-05
-1.33397e-13
1.125e-05
-9.5313e-14
1.125e-05
-6.29859e-14
1.125e-05
-3.99198e-14
1.125e-05
-2.41256e-14
1.125e-05
-1.40434e-14
1.125e-05
-7.84204e-15
1.125e-05
-4.14775e-15
1.125e-05
-2.02123e-15
1.125e-05
-8.36029e-16
1.125e-05
-1.68066e-16
1.125e-05
3.0831e-16
1.125e-05
9.33285e-16
1.125e-05
2.21928e-15
1.125e-05
5.08078e-15
1.125e-05
1.1013e-14
1.125e-05
2.15426e-14
1.125e-05
4.01717e-14
3.80773e-14
1.375e-05
-1.27518e-13
1.375e-05
-1.37539e-13
1.375e-05
-1.01823e-13
1.375e-05
-6.89185e-14
1.375e-05
-4.44695e-14
1.375e-05
-2.72555e-14
1.375e-05
-1.60165e-14
1.375e-05
-8.99752e-15
1.375e-05
-4.77536e-15
1.375e-05
-2.3369e-15
1.375e-05
-9.93026e-16
1.375e-05
-2.76226e-16
1.375e-05
1.62182e-16
1.375e-05
6.61226e-16
1.375e-05
1.69828e-15
1.375e-05
4.07182e-15
1.375e-05
9.06458e-15
1.375e-05
1.7655e-14
1.375e-05
3.2257e-14
2.98239e-14
1.625e-05
-1.19519e-13
1.625e-05
-1.29721e-13
1.625e-05
-9.86263e-14
1.625e-05
-6.80377e-14
1.625e-05
-4.4572e-14
1.625e-05
-2.76385e-14
1.625e-05
-1.63582e-14
1.625e-05
-9.21378e-15
1.625e-05
-4.88203e-15
1.625e-05
-2.38216e-15
1.625e-05
-1.03459e-15
1.625e-05
-3.80195e-16
1.625e-05
-9.2017e-17
1.625e-05
1.16111e-16
1.625e-05
6.09945e-16
1.625e-05
1.95627e-15
1.625e-05
5.0776e-15
1.625e-05
1.03598e-14
1.625e-05
1.93801e-14
1.69791e-14
1.875e-05
-1.02574e-13
1.875e-05
-1.11321e-13
1.875e-05
-8.63681e-14
1.875e-05
-6.04858e-14
1.875e-05
-4.01436e-14
1.875e-05
-2.51347e-14
1.875e-05
-1.49436e-14
1.875e-05
-8.40129e-15
1.875e-05
-4.40953e-15
1.875e-05
-2.12037e-15
1.875e-05
-9.35641e-16
1.875e-05
-4.56896e-16
1.875e-05
-4.21481e-16
1.875e-05
-6.40362e-16
1.875e-05
-9.17331e-16
1.875e-05
-9.96669e-16
1.875e-05
-4.01449e-16
1.875e-05
6.86573e-16
1.875e-05
3.19489e-15
1.03758e-15
2.12499e-05
-7.8566e-14
2.12499e-05
-8.44968e-14
2.12499e-05
-6.66474e-14
2.12499e-05
-4.7266e-14
2.12499e-05
-3.17648e-14
2.12499e-05
-2.00616e-14
2.12499e-05
-1.19431e-14
2.12499e-05
-6.65092e-15
2.12499e-05
-3.40536e-15
2.12499e-05
-1.57311e-15
2.12499e-05
-6.98858e-16
2.12499e-05
-4.88966e-16
2.12499e-05
-7.78574e-16
2.12499e-05
-1.50575e-15
2.12499e-05
-2.67765e-15
2.12499e-05
-4.38776e-15
2.12499e-05
-6.64324e-15
2.12499e-05
-1.01334e-14
2.12499e-05
-1.45216e-14
-1.63858e-14
2.37499e-05
-4.98331e-14
2.37499e-05
-5.19814e-14
2.37499e-05
-4.17684e-14
2.37499e-05
-3.00619e-14
2.37499e-05
-2.0563e-14
2.37499e-05
-1.31305e-14
2.37499e-05
-7.78841e-15
2.37499e-05
-4.21754e-15
2.37499e-05
-2.01521e-15
2.37499e-05
-8.18023e-16
2.37499e-05
-3.55913e-16
2.37499e-05
-4.69551e-16
2.37499e-05
-1.11112e-15
2.37499e-05
-2.35783e-15
2.37499e-05
-4.42728e-15
2.37499e-05
-7.76193e-15
2.37499e-05
-1.28517e-14
2.37499e-05
-2.08307e-14
2.37499e-05
-3.20026e-14
-3.36537e-14
2.62499e-05
-1.9005e-14
2.62499e-05
-1.68915e-14
2.62499e-05
-1.4519e-14
2.62499e-05
-1.10276e-14
2.62499e-05
-8.05297e-15
2.62499e-05
-5.33567e-15
2.62499e-05
-3.10149e-15
2.62499e-05
-1.47654e-15
2.62499e-05
-4.57849e-16
2.62499e-05
2.45788e-17
2.62499e-05
3.76714e-17
2.62499e-05
-4.03957e-16
2.62499e-05
-1.37193e-15
2.62499e-05
-3.07548e-15
2.62499e-05
-5.92406e-15
2.62499e-05
-1.06737e-14
2.62499e-05
-1.82637e-14
2.62499e-05
-3.0214e-14
2.62499e-05
-4.76044e-14
-4.92144e-14
2.87499e-05
1.11424e-14
2.87499e-05
1.74411e-14
2.87499e-05
1.20521e-14
2.87499e-05
7.44324e-15
2.87499e-05
4.05918e-15
2.87499e-05
2.19294e-15
2.87499e-05
1.40634e-15
2.87499e-05
1.14127e-15
2.87499e-05
1.01455e-15
2.87499e-05
8.14311e-16
2.87499e-05
4.13466e-16
2.87499e-05
-3.0784e-16
2.87499e-05
-1.52591e-15
2.87499e-05
-3.55704e-15
2.87499e-05
-6.96135e-15
2.87499e-05
-1.2743e-14
2.87499e-05
-2.22267e-14
2.87499e-05
-3.72614e-14
2.87499e-05
-5.98848e-14
-6.16787e-14
3.125e-05
3.78279e-14
3.125e-05
4.76426e-14
3.125e-05
3.48796e-14
3.125e-05
2.29765e-14
3.125e-05
1.41057e-14
3.125e-05
8.36264e-15
3.125e-05
5.05513e-15
3.125e-05
3.22768e-15
3.125e-05
2.16481e-15
3.125e-05
1.41885e-15
3.125e-05
7.04755e-16
3.125e-05
-2.02493e-16
3.125e-05
-1.55414e-15
3.125e-05
-3.73447e-15
3.125e-05
-7.3955e-15
3.125e-05
-1.36993e-14
3.125e-05
-2.42613e-14
3.125e-05
-4.11927e-14
3.125e-05
-6.76696e-14
-6.98894e-14
3.375e-05
5.84528e-14
3.375e-05
7.0508e-14
3.375e-05
5.11574e-14
3.375e-05
3.35177e-14
3.375e-05
2.0705e-14
3.375e-05
1.23048e-14
3.375e-05
7.32105e-15
3.375e-05
4.47752e-15
3.375e-05
2.8194e-15
3.375e-05
1.74259e-15
3.375e-05
8.61906e-16
3.375e-05
-1.08543e-16
3.375e-05
-1.45528e-15
3.375e-05
-3.58287e-15
3.375e-05
-7.16555e-15
3.375e-05
-1.3415e-14
3.375e-05
-2.41122e-14
3.375e-05
-4.15321e-14
3.375e-05
-7.01178e-14
-7.29876e-14
3.625e-05
7.07276e-14
3.625e-05
8.32313e-14
3.625e-05
5.87001e-14
3.625e-05
3.76584e-14
3.625e-05
2.30249e-14
3.625e-05
1.35486e-14
3.625e-05
7.94957e-15
3.625e-05
4.75576e-15
3.625e-05
2.90859e-15
3.625e-05
1.74939e-15
3.625e-05
8.64996e-16
3.625e-05
-4.0142e-17
3.625e-05
-1.24491e-15
3.625e-05
-3.12512e-15
3.625e-05
-6.30495e-15
3.625e-05
-1.19289e-14
3.625e-05
-2.17884e-14
3.625e-05
-3.81736e-14
3.625e-05
-6.67869e-14
-7.04687e-14
3.875e-05
7.30339e-14
3.875e-05
8.38339e-14
3.875e-05
5.63728e-14
3.875e-05
3.50174e-14
3.875e-05
2.10113e-14
3.875e-05
1.21634e-14
3.875e-05
7.02895e-15
3.875e-05
4.13837e-15
3.875e-05
2.48696e-15
3.875e-05
1.47392e-15
3.875e-05
7.29921e-16
3.875e-05
-1.54496e-18
3.875e-05
-9.5382e-16
3.875e-05
-2.43187e-15
3.875e-05
-4.94564e-15
3.875e-05
-9.45941e-15
3.875e-05
-1.76005e-14
3.875e-05
-3.14538e-14
3.875e-05
-5.77579e-14
-6.22913e-14
4.125e-05
6.45444e-14
4.125e-05
7.1605e-14
4.125e-05
4.47328e-14
4.125e-05
2.65743e-14
4.125e-05
1.55684e-14
4.125e-05
8.81297e-15
4.125e-05
5.00704e-15
4.125e-05
2.90848e-15
4.125e-05
1.72811e-15
4.125e-05
1.01673e-15
4.125e-05
5.05931e-16
4.125e-05
1.27397e-17
4.125e-05
-6.2582e-16
4.125e-05
-1.61729e-15
4.125e-05
-3.31293e-15
4.125e-05
-6.40772e-15
4.125e-05
-1.21877e-14
4.125e-05
-2.22559e-14
4.125e-05
-4.37739e-14
-4.89709e-14
4.375e-05
4.61887e-14
4.375e-05
4.83388e-14
4.375e-05
2.67103e-14
4.375e-05
1.49928e-14
4.375e-05
8.55087e-15
4.375e-05
4.70101e-15
4.375e-05
2.61764e-15
4.375e-05
1.5039e-15
4.375e-05
8.8791e-16
4.375e-05
5.2275e-16
4.375e-05
2.63803e-16
4.375e-05
1.3321e-17
4.375e-05
-3.15768e-16
4.375e-05
-8.29556e-16
4.375e-05
-1.71109e-15
4.375e-05
-3.34594e-15
4.375e-05
-6.54523e-15
4.375e-05
-1.21524e-14
4.375e-05
-2.66359e-14
-3.18718e-14
4.625e-05
2.04119e-14
4.625e-05
1.95708e-14
4.625e-05
8.73188e-15
4.625e-05
4.49123e-15
4.625e-05
2.51532e-15
4.625e-05
1.31907e-15
4.625e-05
7.14571e-16
4.625e-05
4.07171e-16
4.625e-05
2.40973e-16
4.625e-05
1.44488e-16
4.625e-05
7.68913e-17
4.625e-05
9.133e-18
4.625e-05
-8.60881e-17
4.625e-05
-2.36845e-16
4.625e-05
-4.92105e-16
4.625e-05
-9.72914e-16
4.625e-05
-1.98371e-15
4.625e-05
-3.66943e-15
4.625e-05
-9.74131e-15
-1.31926e-14
4.875e-05
4.875e-05
4.875e-05
4.875e-05
4.875e-05
4.875e-05
4.875e-05
4.875e-05
4.875e-05
4.875e-05
4.875e-05
4.875e-05
4.875e-05
4.875e-05
4.875e-05
4.875e-05
4.875e-05
4.875e-05
4.875e-05
)
;

boundaryField
{
    top
    {
        type            calculated;
        value           uniform 0;
    }
    bottom
    {
        type            calculated;
        value           uniform 0;
    }
    inlet
    {
        type            calculated;
        value           nonuniform List<scalar> 
20
(
-1.25e-06
-3.74999e-06
-6.24998e-06
-8.74997e-06
-1.125e-05
-1.375e-05
-1.625e-05
-1.875e-05
-2.12499e-05
-2.37499e-05
-2.62499e-05
-2.87499e-05
-3.125e-05
-3.375e-05
-3.625e-05
-3.875e-05
-4.125e-05
-4.375e-05
-4.625e-05
-4.875e-05
)
;
    }
    outlet
    {
        type            calculated;
        value           nonuniform List<scalar> 
20
(
1.25e-06
3.74999e-06
6.24998e-06
8.74997e-06
1.125e-05
1.375e-05
1.625e-05
1.875e-05
2.12499e-05
2.37499e-05
2.62499e-05
2.87499e-05
3.125e-05
3.375e-05
3.625e-05
3.875e-05
4.125e-05
4.375e-05
4.625e-05
4.875e-05
)
;
    }
    frontAndBack
    {
        type            empty;
        value           nonuniform List<scalar> 0();
    }
}


// ************************************************************************* //
