/*--------------------------------*- C++ -*----------------------------------*\
  =========                 |
  \\      /  F ield         | OpenFOAM: The Open Source CFD Toolbox
   \\    /   O peration     | Website:  https://openfoam.org
    \\  /    A nd           | Version:  9
     \\/     M anipulation  |
\*---------------------------------------------------------------------------*/
FoamFile
{
    format      ascii;
    class       volVectorField;
    location    "2.7";
    object      U;
}
// * * * * * * * * * * * * * * * * * * * * * * * * * * * * * * * * * * * * * //

dimensions      [0 1 -1 0 0 0 0];

internalField   nonuniform List<vector> 
400
(
(0.0249999 -1.19533e-10 0)
(0.0249999 -9.55996e-11 0)
(0.0249999 -4.01532e-11 0)
(0.0249999 -2.13885e-11 0)
(0.0249999 -1.17957e-11 0)
(0.0249999 -6.24893e-12 0)
(0.0249999 -3.36861e-12 0)
(0.0249999 -1.68612e-12 0)
(0.0249999 -7.60668e-13 0)
(0.0249999 -3.24949e-13 0)
(0.0249999 -1.17403e-13 0)
(0.0249999 1.73243e-14 0)
(0.0249999 1.57373e-13 0)
(0.0249999 3.94965e-13 0)
(0.0249999 9.39999e-13 0)
(0.0249999 2.49449e-12 0)
(0.0249999 6.2239e-12 0)
(0.0249999 1.48467e-11 0)
(0.0249999 5.24434e-11 0)
(0.0249999 6.1499e-11 0)
(0.0749997 -4.11604e-10 0)
(0.0749997 -3.65912e-10 0)
(0.0749997 -1.91e-10 0)
(0.0749997 -1.09627e-10 0)
(0.0749997 -6.33113e-11 0)
(0.0749997 -3.51976e-11 0)
(0.0749997 -1.93522e-11 0)
(0.0749997 -1.02368e-11 0)
(0.0749997 -5.07788e-12 0)
(0.0749997 -2.30532e-12 0)
(0.0749997 -8.20486e-13 0)
(0.0749997 7.7744e-14 0)
(0.0749997 8.87862e-13 0)
(0.0749997 2.20682e-12 0)
(0.0749997 5.16351e-12 0)
(0.0749997 1.26246e-11 0)
(0.0749997 2.96788e-11 0)
(0.0749997 6.60483e-11 0)
(0.0749997 1.79487e-10 0)
(0.0749997 1.97043e-10 0)
(0.125 -7.48586e-10 0)
(0.125 -7.26982e-10 0)
(0.125 -4.39095e-10 0)
(0.125 -2.65675e-10 0)
(0.125 -1.58473e-10 0)
(0.125 -9.11282e-11 0)
(0.125 -5.12472e-11 0)
(0.125 -2.77726e-11 0)
(0.125 -1.42512e-11 0)
(0.125 -6.70966e-12 0)
(0.125 -2.53612e-12 0)
(0.125 -2.21746e-14 0)
(0.125 2.14156e-12 0)
(0.125 5.49149e-12 0)
(0.125 1.2719e-11 0)
(0.125 2.97053e-11 0)
(0.125 6.69201e-11 0)
(0.125 1.41202e-10 0)
(0.125 3.17674e-10 0)
(0.125 3.26723e-10 0)
(0.174999 -1.03002e-09 0)
(0.174999 -1.05345e-09 0)
(0.174999 -6.94641e-10 0)
(0.174999 -4.37545e-10 0)
(0.174999 -2.68037e-10 0)
(0.174999 -1.57608e-10 0)
(0.174999 -8.99817e-11 0)
(0.174999 -4.94997e-11 0)
(0.174999 -2.5836e-11 0)
(0.174999 -1.23863e-11 0)
(0.174999 -4.86279e-12 0)
(0.174999 -4.07534e-13 0)
(0.174999 3.22102e-12 0)
(0.174999 8.56318e-12 0)
(0.174999 1.98041e-11 0)
(0.174999 4.52479e-11 0)
(0.174999 9.92214e-11 0)
(0.174999 2.01407e-10 0)
(0.174999 4.06735e-10 0)
(0.174999 4.01292e-10 0)
(0.224999 -1.21459e-09 0)
(0.224999 -1.27994e-09 0)
(0.224999 -8.94942e-10 0)
(0.224999 -5.82963e-10 0)
(0.224999 -3.65535e-10 0)
(0.224999 -2.19045e-10 0)
(0.224999 -1.26745e-10 0)
(0.224999 -7.04854e-11 0)
(0.224999 -3.71699e-11 0)
(0.224999 -1.80467e-11 0)
(0.224999 -7.34459e-12 0)
(0.224999 -1.17096e-12 0)
(0.224999 3.50132e-12 0)
(0.224999 9.93887e-12 0)
(0.224999 2.32214e-11 0)
(0.224999 5.27022e-11 0)
(0.224999 1.13926e-10 0)
(0.224999 2.24525e-10 0)
(0.224999 4.25622e-10 0)
(0.224999 4.08729e-10 0)
(0.274999 -1.29041e-09 0)
(0.274999 -1.38382e-09 0)
(0.274999 -1.00913e-09 0)
(0.274999 -6.75584e-10 0)
(0.274999 -4.322e-10 0)
(0.274999 -2.63135e-10 0)
(0.274999 -1.53953e-10 0)
(0.274999 -8.62855e-11 0)
(0.274999 -4.57709e-11 0)
(0.274999 -2.2389e-11 0)
(0.274999 -9.39534e-12 0)
(0.274999 -2.21393e-12 0)
(0.274999 2.6319e-12 0)
(0.274999 8.66649e-12 0)
(0.274999 2.10346e-11 0)
(0.274999 4.86141e-11 0)
(0.274999 1.05705e-10 0)
(0.274999 2.05101e-10 0)
(0.274999 3.75484e-10 0)
(0.274999 3.52531e-10 0)
(0.324999 -1.25936e-09 0)
(0.324999 -1.36351e-09 0)
(0.324999 -1.02556e-09 0)
(0.324999 -7.01759e-10 0)
(0.324999 -4.56593e-10 0)
(0.324999 -2.8167e-10 0)
(0.324999 -1.66231e-10 0)
(0.324999 -9.36033e-11 0)
(0.324999 -4.97213e-11 0)
(0.324999 -2.43568e-11 0)
(0.324999 -1.0484e-11 0)
(0.324999 -3.33832e-12 0)
(0.324999 5.686e-13 0)
(0.324999 4.48311e-12 0)
(0.324999 1.27854e-11 0)
(0.324999 3.25337e-11 0)
(0.324999 7.50164e-11 0)
(0.324999 1.4708e-10 0)
(0.324999 2.68038e-10 0)
(0.324999 2.43672e-10 0)
(0.374999 -1.13064e-09 0)
(0.374999 -1.22823e-09 0)
(0.374999 -9.45535e-10 0)
(0.374999 -6.58196e-10 0)
(0.374999 -4.34375e-10 0)
(0.374999 -2.70873e-10 0)
(0.374999 -1.60833e-10 0)
(0.374999 -9.06375e-11 0)
(0.374999 -4.79161e-11 0)
(0.374999 -2.32992e-11 0)
(0.374999 -1.02296e-11 0)
(0.374999 -4.29728e-12 0)
(0.374999 -2.45785e-12 0)
(0.374999 -2.24193e-12 0)
(0.374999 -7.28007e-13 0)
(0.374999 6.33549e-12 0)
(0.374999 2.60771e-11 0)
(0.374999 5.94408e-11 0)
(0.374999 1.18649e-10 0)
(0.374999 9.58401e-11 0)
(0.424999 -9.20551e-10 0)
(0.424999 -9.9623e-10 0)
(0.424999 -7.80843e-10 0)
(0.424999 -5.51013e-10 0)
(0.424999 -3.6822e-10 0)
(0.424999 -2.3171e-10 0)
(0.424999 -1.3801e-10 0)
(0.424999 -7.73941e-11 0)
(0.424999 -4.02924e-11 0)
(0.424999 -1.91299e-11 0)
(0.424999 -8.50811e-12 0)
(0.424999 -4.87265e-12 0)
(0.424999 -6.01874e-12 0)
(0.424999 -1.06381e-11 0)
(0.424999 -1.77362e-11 0)
(0.424999 -2.64575e-11 0)
(0.424999 -3.44216e-11 0)
(0.424999 -4.60969e-11 0)
(0.424999 -5.50916e-11 0)
(0.424999 -7.50621e-11 0)
(0.474999 -6.5056e-10 0)
(0.474999 -6.92436e-10 0)
(0.474999 -5.51557e-10 0)
(0.474999 -3.94109e-10 0)
(0.474999 -2.67002e-10 0)
(0.474999 -1.69536e-10 0)
(0.474999 -1.00899e-10 0)
(0.474999 -5.56735e-11 0)
(0.474999 -2.78551e-11 0)
(0.474999 -1.23635e-11 0)
(0.474999 -5.49558e-12 0)
(0.474999 -4.93482e-12 0)
(0.474999 -9.58962e-12 0)
(0.474999 -1.95289e-11 0)
(0.474999 -3.58915e-11 0)
(0.474999 -6.14e-11 0)
(0.474999 -9.85924e-11 0)
(0.474999 -1.56695e-10 0)
(0.474999 -2.35171e-10 0)
(0.474999 -2.52523e-10 0)
(0.524999 -3.45914e-10 0)
(0.524999 -3.4657e-10 0)
(0.524999 -2.83692e-10 0)
(0.524999 -2.07223e-10 0)
(0.524999 -1.44373e-10 0)
(0.524999 -9.32009e-11 0)
(0.524999 -5.49823e-11 0)
(0.524999 -2.87634e-11 0)
(0.524999 -1.2508e-11 0)
(0.524999 -4.03532e-12 0)
(0.524999 -1.64867e-12 0)
(0.524999 -4.4768e-12 0)
(0.524999 -1.26534e-11 0)
(0.524999 -2.76492e-11 0)
(0.524999 -5.26736e-11 0)
(0.524999 -9.38404e-11 0)
(0.524999 -1.58421e-10 0)
(0.524999 -2.59793e-10 0)
(0.524999 -4.04286e-10 0)
(0.524999 -4.20354e-10 0)
(0.574999 -3.40116e-11 0)
(0.574999 8.67832e-12 0)
(0.574999 -7.01618e-12 0)
(0.574999 -1.37007e-11 0)
(0.574999 -1.6972e-11 0)
(0.574999 -1.37293e-11 0)
(0.574999 -7.20798e-12 0)
(0.574999 -8.76939e-13 0)
(0.574999 3.28143e-12 0)
(0.574999 4.48591e-12 0)
(0.574999 2.37952e-12 0)
(0.574999 -3.6128e-12 0)
(0.574999 -1.47858e-11 0)
(0.574999 -3.38459e-11 0)
(0.574999 -6.57642e-11 0)
(0.574999 -1.19529e-10 0)
(0.574999 -2.06657e-10 0)
(0.574999 -3.44122e-10 0)
(0.574999 -5.46816e-10 0)
(0.574999 -5.63666e-10 0)
(0.624999 2.56922e-10 0)
(0.624999 3.3928e-10 0)
(0.624999 2.47261e-10 0)
(0.624999 1.61924e-10 0)
(0.624999 9.77345e-11 0)
(0.624999 5.73093e-11 0)
(0.624999 3.51537e-11 0)
(0.624999 2.35867e-11 0)
(0.624999 1.69409e-11 0)
(0.624999 1.17627e-11 0)
(0.624999 5.87365e-12 0)
(0.624999 -2.54297e-12 0)
(0.624999 -1.57118e-11 0)
(0.624999 -3.72433e-11 0)
(0.624999 -7.33563e-11 0)
(0.624999 -1.35121e-10 0)
(0.624999 -2.37507e-10 0)
(0.624999 -4.00507e-10 0)
(0.624999 -6.49506e-10 0)
(0.624999 -6.69545e-10 0)
(0.674999 4.9962e-10 0)
(0.674999 6.11812e-10 0)
(0.674999 4.49015e-10 0)
(0.674999 2.96746e-10 0)
(0.674999 1.83857e-10 0)
(0.674999 1.09648e-10 0)
(0.674999 6.57758e-11 0)
(0.674999 4.08681e-11 0)
(0.674999 2.63002e-11 0)
(0.674999 1.65876e-11 0)
(0.674999 8.21452e-12 0)
(0.674999 -1.49413e-12 0)
(0.674999 -1.53315e-11 0)
(0.674999 -3.73624e-11 0)
(0.674999 -7.43925e-11 0)
(0.674999 -1.38562e-10 0)
(0.674999 -2.47194e-10 0)
(0.674999 -4.22522e-10 0)
(0.674999 -7.02132e-10 0)
(0.674999 -7.2777e-10 0)
(0.724999 6.69092e-10 0)
(0.724999 7.95501e-10 0)
(0.724999 5.7241e-10 0)
(0.724999 3.72599e-10 0)
(0.724999 2.29714e-10 0)
(0.724999 1.36181e-10 0)
(0.724999 8.05205e-11 0)
(0.724999 4.86214e-11 0)
(0.724999 3.00609e-11 0)
(0.724999 1.82552e-11 0)
(0.724999 9.02853e-12 0)
(0.724999 -6.53703e-13 0)
(0.724999 -1.37211e-11 0)
(0.724999 -3.41901e-11 0)
(0.724999 -6.87214e-11 0)
(0.724999 -1.29372e-10 0)
(0.724999 -2.34403e-10 0)
(0.724999 -4.07118e-10 0)
(0.724999 -6.98089e-10 0)
(0.724999 -7.3137e-10 0)
(0.774999 7.45199e-10 0)
(0.774999 8.65213e-10 0)
(0.774999 5.99358e-10 0)
(0.774999 3.79558e-10 0)
(0.774999 2.30294e-10 0)
(0.774999 1.3461e-10 0)
(0.774999 7.84133e-11 0)
(0.774999 4.64867e-11 0)
(0.774999 2.81172e-11 0)
(0.774999 1.67439e-11 0)
(0.774999 8.28736e-12 0)
(0.774999 -1.19495e-13 0)
(0.774999 -1.11175e-11 0)
(0.774999 -2.81978e-11 0)
(0.774999 -5.71674e-11 0)
(0.774999 -1.08808e-10 0)
(0.774999 -2.0063e-10 0)
(0.774999 -3.55144e-10 0)
(0.774999 -6.35138e-10 0)
(0.774999 -6.77348e-10 0)
(0.824999 7.12653e-10 0)
(0.824999 8.03807e-10 0)
(0.824999 5.24339e-10 0)
(0.824999 3.19185e-10 0)
(0.824999 1.89302e-10 0)
(0.824999 1.08421e-10 0)
(0.824999 6.21087e-11 0)
(0.824999 3.62764e-11 0)
(0.824999 2.16332e-11 0)
(0.824999 1.27476e-11 0)
(0.824999 6.32908e-12 0)
(0.824999 1.23022e-13 0)
(0.824999 -7.88761e-12 0)
(0.824999 -2.03018e-11 0)
(0.824999 -4.14943e-11 0)
(0.824999 -7.98938e-11 0)
(0.824999 -1.5038e-10 0)
(0.824999 -2.71991e-10 0)
(0.824999 -5.15859e-10 0)
(0.824999 -5.66693e-10 0)
(0.875 5.69156e-10 0)
(0.875 6.13981e-10 0)
(0.875 3.63365e-10 0)
(0.875 2.09658e-10 0)
(0.875 1.20958e-10 0)
(0.875 6.74465e-11 0)
(0.875 3.78975e-11 0)
(0.875 2.18548e-11 0)
(0.875 1.29134e-11 0)
(0.875 7.57688e-12 0)
(0.875 3.78687e-12 0)
(0.875 1.48432e-13 0)
(0.875 -4.57743e-12 0)
(0.875 -1.19272e-11 0)
(0.875 -2.45074e-11 0)
(0.875 -4.76849e-11 0)
(0.875 -9.20494e-11 0)
(0.875 -1.70018e-10 0)
(0.875 -3.5228e-10 0)
(0.875 -4.07218e-10 0)
(0.925 3.37887e-10 0)
(0.925 3.40214e-10 0)
(0.925 1.70772e-10 0)
(0.925 9.06185e-11 0)
(0.925 5.05947e-11 0)
(0.925 2.70581e-11 0)
(0.925 1.47887e-11 0)
(0.925 8.4279e-12 0)
(0.925 4.96884e-12 0)
(0.925 2.94595e-12 0)
(0.925 1.51993e-12 0)
(0.925 1.17816e-13 0)
(0.925 -1.77566e-12 0)
(0.925 -4.75494e-12 0)
(0.925 -9.86936e-12 0)
(0.925 -1.94818e-11 0)
(0.925 -3.89992e-11 0)
(0.925 -7.31447e-11 0)
(0.925 -1.75951e-10 0)
(0.925 -2.22025e-10 0)
(0.975 1.04372e-10 0)
(0.975 9.75562e-11 0)
(0.975 3.88945e-11 0)
(0.975 1.80597e-11 0)
(0.975 9.68964e-12 0)
(0.975 4.82231e-12 0)
(0.975 2.52562e-12 0)
(0.975 1.42415e-12 0)
(0.975 8.40535e-13 0)
(0.975 5.03501e-13 0)
(0.975 2.67046e-13 0)
(0.975 1.7632e-14 0)
(0.975 -3.6107e-13 0)
(0.975 -9.69839e-13 0)
(0.975 -1.96395e-12 0)
(0.975 -3.86113e-12 0)
(0.975 -8.13781e-12 0)
(0.975 -1.52876e-11 0)
(0.975 -4.57954e-11 0)
(0.975 -6.40469e-11 0)
)
;

boundaryField
{
    top
    {
        type            fixedValue;
        value           uniform (1 0 0);
    }
    bottom
    {
        type            fixedValue;
        value           uniform (0 0 0);
    }
    inlet
    {
        type            zeroGradient;
    }
    outlet
    {
        type            zeroGradient;
    }
    frontAndBack
    {
        type            empty;
    }
}


// ************************************************************************* //
