/*--------------------------------*- C++ -*----------------------------------*\
  =========                 |
  \\      /  F ield         | OpenFOAM: The Open Source CFD Toolbox
   \\    /   O peration     | Website:  https://openfoam.org
    \\  /    A nd           | Version:  9
     \\/     M anipulation  |
\*---------------------------------------------------------------------------*/
FoamFile
{
    format      ascii;
    class       volScalarField;
    location    "1.6";
    object      p;
}
// * * * * * * * * * * * * * * * * * * * * * * * * * * * * * * * * * * * * * //

dimensions      [0 2 -2 0 0 0 0];

internalField   nonuniform List<scalar> 
400
(
1.13227e-07
1.87652e-07
1.81455e-07
1.72597e-07
1.58053e-07
1.40828e-07
1.22884e-07
1.04627e-07
8.6363e-08
6.82445e-08
5.01896e-08
3.2082e-08
1.38806e-08
-4.40704e-09
-2.27619e-08
-4.1219e-08
-5.9304e-08
-7.5715e-08
-9.64376e-08
-6.09257e-08
1.07382e-07
1.78776e-07
1.72027e-07
1.66947e-07
1.54625e-07
1.3876e-07
1.21687e-07
1.03958e-07
8.60039e-08
6.80647e-08
5.01133e-08
3.20724e-08
1.39321e-08
-4.26316e-09
-2.24261e-08
-4.0495e-08
-5.77689e-08
-7.21937e-08
-9.41397e-08
-5.93636e-08
1.08571e-07
1.79559e-07
1.66765e-07
1.63317e-07
1.52185e-07
1.37148e-07
1.20693e-07
1.03369e-07
8.56638e-08
6.78722e-08
5.00106e-08
3.20325e-08
1.39497e-08
-4.16952e-09
-2.21965e-08
-4.00458e-08
-5.69914e-08
-7.04914e-08
-9.71713e-08
-6.15482e-08
1.1274e-07
1.87386e-07
1.65658e-07
1.61785e-07
1.50867e-07
1.36102e-07
1.19972e-07
1.02897e-07
8.53577e-08
6.76719e-08
4.98819e-08
3.19584e-08
1.39228e-08
-4.14815e-09
-2.2115e-08
-3.99329e-08
-5.69965e-08
-7.06154e-08
-1.03303e-07
-6.49284e-08
1.17305e-07
1.98228e-07
1.66699e-07
1.61436e-07
1.50221e-07
1.35409e-07
1.19422e-07
1.02492e-07
8.50636e-08
6.74591e-08
4.97312e-08
3.18562e-08
1.38568e-08
-4.18953e-09
-2.21519e-08
-4.00522e-08
-5.7471e-08
-7.16198e-08
-1.1016e-07
-6.81405e-08
1.21521e-07
2.09945e-07
1.68808e-07
1.61728e-07
1.49979e-07
1.3493e-07
1.18968e-07
1.0212e-07
8.47717e-08
6.72349e-08
4.95632e-08
3.17315e-08
1.37592e-08
-4.27943e-09
-2.22701e-08
-4.03077e-08
-5.81695e-08
-7.29328e-08
-1.1645e-07
-7.07539e-08
1.2524e-07
2.21349e-07
1.71364e-07
1.6233e-07
1.49952e-07
1.34569e-07
1.18562e-07
1.01761e-07
8.4478e-08
6.70026e-08
4.93834e-08
3.15909e-08
1.36392e-08
-4.40078e-09
-2.2433e-08
-4.06147e-08
-5.89141e-08
-7.42071e-08
-1.21514e-07
-7.26932e-08
1.28314e-07
2.31467e-07
1.73867e-07
1.62952e-07
1.49973e-07
1.3424e-07
1.18164e-07
1.01399e-07
8.41782e-08
6.67643e-08
4.91971e-08
3.14423e-08
1.35091e-08
-4.53237e-09
-2.25993e-08
-4.08915e-08
-5.95433e-08
-7.51825e-08
-1.24892e-07
-7.38858e-08
1.30652e-07
2.39544e-07
1.75911e-07
1.63368e-07
1.49907e-07
1.33878e-07
1.17745e-07
1.01023e-07
8.38716e-08
6.65235e-08
4.90106e-08
3.12947e-08
1.33828e-08
-4.65116e-09
-2.27289e-08
-4.10655e-08
-5.99272e-08
-7.56679e-08
-1.26327e-07
-7.4312e-08
1.32183e-07
2.45026e-07
1.77218e-07
1.63435e-07
1.49676e-07
1.33453e-07
1.17297e-07
1.00634e-07
8.3563e-08
6.62866e-08
4.88308e-08
3.11572e-08
1.32736e-08
-4.73655e-09
-2.27885e-08
-4.10831e-08
-5.99761e-08
-7.55529e-08
-1.25721e-07
-7.39769e-08
1.32858e-07
2.47553e-07
1.77632e-07
1.63095e-07
1.49259e-07
1.32967e-07
1.16834e-07
1.00248e-07
8.3264e-08
6.60624e-08
4.86653e-08
3.10377e-08
1.31919e-08
-4.77375e-09
-2.27569e-08
-4.09154e-08
-5.96477e-08
-7.48029e-08
-1.23122e-07
-7.2913e-08
1.32632e-07
2.46949e-07
1.77121e-07
1.62377e-07
1.48689e-07
1.32456e-07
1.16386e-07
9.98872e-08
8.29913e-08
6.58617e-08
4.85213e-08
3.0942e-08
1.31435e-08
-4.75665e-09
-2.26286e-08
-4.0562e-08
-5.89481e-08
-7.34539e-08
-1.18698e-07
-7.117e-08
1.31465e-07
2.43232e-07
1.75776e-07
1.61385e-07
1.48046e-07
1.31983e-07
1.16001e-07
9.95838e-08
8.27645e-08
6.56961e-08
4.84054e-08
3.08732e-08
1.31286e-08
-4.68935e-09
-2.2416e-08
-4.00523e-08
-5.79329e-08
-7.16093e-08
-1.12729e-07
-6.88168e-08
1.29343e-07
2.36645e-07
1.73823e-07
1.60301e-07
1.4745e-07
1.31625e-07
1.15728e-07
9.93704e-08
8.26031e-08
6.55763e-08
4.83221e-08
3.08309e-08
1.31413e-08
-4.58642e-09
-2.21491e-08
-3.94458e-08
-5.67066e-08
-6.94384e-08
-1.05604e-07
-6.59479e-08
1.26272e-07
2.27688e-07
1.71636e-07
1.59369e-07
1.47049e-07
1.31467e-07
1.15617e-07
9.92749e-08
8.25227e-08
6.55099e-08
4.82734e-08
3.08115e-08
1.31705e-08
-4.47156e-09
-2.18737e-08
-3.88282e-08
-5.54183e-08
-6.71748e-08
-9.78186e-08
-6.26865e-08
1.22338e-07
2.17166e-07
1.69701e-07
1.58874e-07
1.46993e-07
1.31584e-07
1.15704e-07
9.93144e-08
8.25309e-08
6.54994e-08
4.82577e-08
3.08086e-08
1.32013e-08
-4.37445e-09
-2.16455e-08
-3.83033e-08
-5.42512e-08
-6.5102e-08
-8.99776e-08
-5.91942e-08
1.17608e-07
2.06186e-07
1.68652e-07
1.59103e-07
1.47419e-07
1.32027e-07
1.16005e-07
9.9491e-08
8.26259e-08
6.55417e-08
4.82708e-08
3.08136e-08
1.32166e-08
-4.3275e-09
-2.1524e-08
-3.79835e-08
-5.34131e-08
-6.35625e-08
-8.27915e-08
-5.56448e-08
1.1277e-07
1.9692e-07
1.69553e-07
1.60508e-07
1.48507e-07
1.32862e-07
1.16535e-07
9.98058e-08
8.28045e-08
6.56329e-08
4.83073e-08
3.08168e-08
1.31964e-08
-4.36956e-09
-2.15802e-08
-3.80065e-08
-5.31874e-08
-6.31061e-08
-7.74389e-08
-5.25138e-08
1.10027e-07
1.93425e-07
1.74374e-07
1.6384e-07
1.50569e-07
1.34201e-07
1.17332e-07
1.0027e-07
8.30709e-08
6.57759e-08
4.8368e-08
3.08136e-08
1.31262e-08
-4.53368e-09
-2.18867e-08
-3.85352e-08
-5.39494e-08
-6.4614e-08
-7.60002e-08
-5.12743e-08
1.13435e-07
1.99272e-07
1.83138e-07
1.68982e-07
1.53456e-07
1.35908e-07
1.18305e-07
1.00826e-07
8.33915e-08
6.59524e-08
4.84446e-08
3.08038e-08
1.30158e-08
-4.79546e-09
-2.24015e-08
-3.95013e-08
-5.56606e-08
-6.80565e-08
-7.97486e-08
-5.41301e-08
)
;

boundaryField
{
    top
    {
        type            zeroGradient;
    }
    bottom
    {
        type            zeroGradient;
    }
    inlet
    {
        type            fixedValue;
        value           uniform 0;
    }
    outlet
    {
        type            fixedValue;
        value           uniform 0;
    }
    frontAndBack
    {
        type            empty;
    }
}


// ************************************************************************* //
