/*--------------------------------*- C++ -*----------------------------------*\
  =========                 |
  \\      /  F ield         | OpenFOAM: The Open Source CFD Toolbox
   \\    /   O peration     | Website:  https://openfoam.org
    \\  /    A nd           | Version:  9
     \\/     M anipulation  |
\*---------------------------------------------------------------------------*/
FoamFile
{
    format      ascii;
    class       surfaceScalarField;
    location    "1.6";
    object      phi;
}
// * * * * * * * * * * * * * * * * * * * * * * * * * * * * * * * * * * * * * //

dimensions      [0 3 -1 0 0 0 0];

internalField   nonuniform List<scalar> 
760
(
1.24988e-06
-6.93479e-13
1.24988e-06
-5.77105e-13
1.24988e-06
-2.74908e-13
1.24988e-06
-1.56311e-13
1.24988e-06
-8.97256e-14
1.24988e-06
-4.93114e-14
1.24988e-06
-2.70232e-14
1.24988e-06
-1.41508e-14
1.24988e-06
-6.90811e-15
1.24988e-06
-3.14511e-15
1.24988e-06
-1.18016e-15
1.24988e-06
2.77312e-17
1.24988e-06
1.1385e-15
1.24988e-06
2.94032e-15
1.24988e-06
6.96632e-15
1.24988e-06
1.75883e-14
1.24988e-06
4.19402e-14
1.24988e-06
9.38093e-14
1.24988e-06
2.95393e-13
3.40984e-13
3.74964e-06
-1.6694e-12
3.74964e-06
-1.56437e-12
3.74964e-06
-8.94416e-13
3.74964e-06
-5.32309e-13
3.74964e-06
-3.14128e-13
3.74964e-06
-1.78738e-13
3.74964e-06
-9.98388e-14
3.74964e-06
-5.37535e-14
3.74964e-06
-2.73492e-14
3.74964e-06
-1.27617e-14
3.74964e-06
-4.75555e-15
3.74964e-06
6.35416e-17
3.74964e-06
4.2486e-15
3.74964e-06
1.08169e-14
3.74964e-06
2.51698e-14
3.74964e-06
5.97735e-14
3.74964e-06
1.3699e-13
3.74964e-06
2.94147e-13
3.74964e-06
7.16865e-13
7.576e-13
6.24941e-06
-2.53909e-12
6.24941e-06
-2.54736e-12
6.24942e-06
-1.61929e-12
6.24942e-06
-1.00274e-12
6.24942e-06
-6.07624e-13
6.24942e-06
-3.54115e-13
6.24942e-06
-2.00965e-13
6.24942e-06
-1.09918e-13
6.24942e-06
-5.69965e-14
6.24942e-06
-2.71149e-14
6.24942e-06
-1.04693e-14
6.24942e-06
-5.67327e-16
6.24942e-06
7.65245e-15
6.24942e-06
2.00113e-14
6.24942e-06
4.63291e-14
6.24942e-06
1.06931e-13
6.24942e-06
2.37418e-13
6.24942e-06
4.91081e-13
6.24942e-06
1.04018e-12
1.04095e-12
8.7492e-06
-3.19027e-12
8.7492e-06
-3.32279e-12
8.7492e-06
-2.2617e-12
8.7492e-06
-1.45123e-12
8.7492e-06
-9.00635e-13
8.7492e-06
-5.35308e-13
8.7492e-06
-3.07973e-13
8.7492e-06
-1.70454e-13
8.7492e-06
-8.94585e-14
8.7492e-06
-4.31693e-14
8.7492e-06
-1.72814e-14
8.7492e-06
-2.18999e-15
8.7492e-06
9.60144e-15
8.7492e-06
2.6357e-14
8.7492e-06
6.12824e-14
8.7492e-06
1.39543e-13
8.7492e-06
3.03815e-13
8.7492e-06
6.07497e-13
8.7492e-06
1.18803e-12
1.1522e-12
1.1249e-05
-3.55649e-12
1.1249e-05
-3.78694e-12
1.1249e-05
-2.70577e-12
1.1249e-05
-1.78804e-12
1.1249e-05
-1.13323e-12
1.1249e-05
-6.84852e-13
1.1249e-05
-3.98633e-13
1.1249e-05
-2.22588e-13
1.1249e-05
-1.17714e-13
1.1249e-05
-5.73468e-14
1.1249e-05
-2.37014e-14
1.1249e-05
-4.73939e-15
1.1249e-05
8.78414e-15
1.1249e-05
2.6527e-14
1.1249e-05
6.30361e-14
1.1249e-05
1.44274e-13
1.1249e-05
3.12687e-13
1.1249e-05
6.11625e-13
1.1249e-05
1.1405e-12
1.08103e-12
1.37488e-05
-3.62004e-12
1.37488e-05
-3.90449e-12
1.37488e-05
-2.89057e-12
1.37488e-05
-1.95645e-12
1.37488e-05
-1.26237e-12
1.37488e-05
-7.73695e-13
1.37488e-05
-4.54638e-13
1.37488e-05
-2.55381e-13
1.37488e-05
-1.35521e-13
1.37488e-05
-6.62981e-14
1.37488e-05
-2.81485e-14
1.37488e-05
-7.80027e-15
1.37488e-05
4.64527e-15
1.37488e-05
1.88128e-14
1.37488e-05
4.82544e-14
1.37488e-05
1.15638e-13
1.37488e-05
2.57382e-13
1.37488e-05
5.01264e-13
1.37488e-05
9.15808e-13
8.46725e-13
1.62487e-05
-3.39294e-12
1.62487e-05
-3.68255e-12
1.62487e-05
-2.79981e-12
1.62487e-05
-1.93143e-12
1.62487e-05
-1.26527e-12
1.62487e-05
-7.8456e-13
1.62487e-05
-4.6433e-13
1.62487e-05
-2.61512e-13
1.62487e-05
-1.38541e-13
1.62487e-05
-6.75746e-14
1.62487e-05
-2.932e-14
1.62487e-05
-1.07433e-14
1.62487e-05
-2.56275e-15
1.62487e-05
3.34548e-15
1.62487e-05
1.73648e-14
1.62487e-05
5.55859e-14
1.62487e-05
1.44198e-13
1.62487e-05
2.94158e-13
1.62487e-05
5.5024e-13
4.82069e-13
1.87486e-05
-2.91189e-12
1.87486e-05
-3.1602e-12
1.87486e-05
-2.45181e-12
1.87486e-05
-1.71704e-12
1.87486e-05
-1.13956e-12
1.87486e-05
-7.13476e-13
1.87486e-05
-4.24165e-13
1.87486e-05
-2.38441e-13
1.87486e-05
-1.25122e-13
1.87486e-05
-6.01363e-14
1.87486e-05
-2.65044e-14
1.87486e-05
-1.29143e-14
1.87486e-05
-1.19096e-14
1.87486e-05
-1.81242e-14
1.87486e-05
-2.59885e-14
1.87486e-05
-2.82428e-14
1.87486e-05
-1.13477e-14
1.87486e-05
1.95382e-14
1.87486e-05
9.07459e-14
2.94929e-14
2.12485e-05
-2.23034e-12
2.12485e-05
-2.3987e-12
2.12485e-05
-1.89197e-12
2.12485e-05
-1.34175e-12
2.12485e-05
-9.01695e-13
2.12485e-05
-5.69456e-13
2.12485e-05
-3.38983e-13
2.12485e-05
-1.88747e-13
2.12485e-05
-9.66113e-14
2.12485e-05
-4.45971e-14
2.12485e-05
-1.97788e-14
2.12485e-05
-1.38211e-14
2.12485e-05
-2.20436e-14
2.12485e-05
-4.26886e-14
2.12485e-05
-7.59605e-14
2.12485e-05
-1.24513e-13
2.12485e-05
-1.8855e-13
2.12485e-05
-2.87642e-13
2.12485e-05
-4.12224e-13
-4.65155e-13
2.37485e-05
-1.41466e-12
2.37485e-05
-1.47563e-12
2.37485e-05
-1.18569e-12
2.37485e-05
-8.53356e-13
2.37485e-05
-5.83692e-13
2.37485e-05
-3.72694e-13
2.37485e-05
-2.2104e-13
2.37485e-05
-1.19668e-13
2.37485e-05
-5.71473e-14
2.37485e-05
-2.31612e-14
2.37485e-05
-1.0043e-14
2.37485e-05
-1.32693e-14
2.37485e-05
-3.14837e-14
2.37485e-05
-6.68785e-14
2.37485e-05
-1.25632e-13
2.37485e-05
-2.20306e-13
2.37485e-05
-3.6481e-13
2.37485e-05
-5.91339e-13
2.37485e-05
-9.08513e-13
-9.5539e-13
2.62485e-05
-5.39488e-13
2.62485e-05
-4.79485e-13
2.62485e-05
-4.12127e-13
2.62485e-05
-3.13006e-13
2.62485e-05
-2.28558e-13
2.62485e-05
-1.51416e-13
2.62485e-05
-8.79894e-14
2.62485e-05
-4.18588e-14
2.62485e-05
-1.29393e-14
2.62485e-05
7.55884e-16
2.62485e-05
1.12762e-15
2.62485e-05
-1.14099e-14
2.62485e-05
-3.88907e-14
2.62485e-05
-8.72548e-14
2.62485e-05
-1.68128e-13
2.62485e-05
-3.02974e-13
2.62485e-05
-5.18459e-13
2.62485e-05
-8.57734e-13
2.62485e-05
-1.35145e-12
-1.39716e-12
2.87485e-05
3.16353e-13
2.87485e-05
4.95166e-13
2.87485e-05
3.42182e-13
2.87485e-05
2.11347e-13
2.87485e-05
1.1528e-13
2.87485e-05
6.23025e-14
2.87485e-05
3.99741e-14
2.87485e-05
3.24503e-14
2.87485e-05
2.88539e-14
2.87485e-05
2.31695e-14
2.87485e-05
1.17903e-14
2.87485e-05
-8.68681e-15
2.87485e-05
-4.32672e-14
2.87485e-05
-1.00931e-13
2.87485e-05
-1.97582e-13
2.87485e-05
-3.61727e-13
2.87485e-05
-6.30973e-13
2.87485e-05
-1.05781e-12
2.87485e-05
-1.70009e-12
-1.75103e-12
3.12486e-05
1.07392e-12
3.12486e-05
1.35254e-12
3.12486e-05
9.90217e-13
3.12486e-05
6.52304e-13
3.12486e-05
4.00477e-13
3.12486e-05
2.37442e-13
3.12486e-05
1.43549e-13
3.12486e-05
9.16719e-14
3.12486e-05
6.14997e-14
3.12486e-05
4.03237e-14
3.12486e-05
2.00517e-14
3.12486e-05
-5.70353e-15
3.12486e-05
-4.40759e-14
3.12486e-05
-1.05976e-13
3.12486e-05
-2.09915e-13
3.12486e-05
-3.88883e-13
3.12486e-05
-6.88744e-13
3.12486e-05
-1.16943e-12
3.12486e-05
-1.92111e-12
-1.98413e-12
3.37487e-05
1.65943e-12
3.37487e-05
2.00165e-12
3.37487e-05
1.45231e-12
3.37487e-05
9.51546e-13
3.37487e-05
5.87812e-13
3.37487e-05
3.49344e-13
3.37487e-05
2.07865e-13
3.37487e-05
1.27144e-13
3.37487e-05
8.00733e-14
3.37487e-05
4.95052e-14
3.37487e-05
2.45041e-14
3.37487e-05
-3.04491e-15
3.37487e-05
-4.12782e-14
3.37487e-05
-1.01681e-13
3.37487e-05
-2.03394e-13
3.37487e-05
-3.80819e-13
3.37487e-05
-6.84517e-13
3.37487e-05
-1.17907e-12
3.37487e-05
-1.99062e-12
-2.07209e-12
3.62488e-05
2.00789e-12
3.62488e-05
2.36285e-12
3.62488e-05
1.66643e-12
3.62488e-05
1.06909e-12
3.62488e-05
6.53662e-13
3.62488e-05
3.84644e-13
3.62488e-05
2.25699e-13
3.62488e-05
1.35033e-13
3.62488e-05
8.25957e-14
3.62488e-05
4.96886e-14
3.62488e-05
2.45827e-14
3.62488e-05
-1.11241e-15
3.62488e-05
-3.53156e-14
3.62488e-05
-8.86949e-14
3.62488e-05
-1.78971e-13
3.62488e-05
-3.38637e-13
3.62488e-05
-6.18551e-13
3.62488e-05
-1.08373e-12
3.62488e-05
-1.89606e-12
-2.00058e-12
3.8749e-05
2.07336e-12
3.8749e-05
2.37995e-12
3.8749e-05
1.60036e-12
3.8749e-05
9.94104e-13
3.8749e-05
5.96492e-13
3.8749e-05
3.45314e-13
3.8749e-05
1.99556e-13
3.8749e-05
1.17498e-13
3.8749e-05
7.06176e-14
3.8749e-05
4.18596e-14
3.8749e-05
2.07392e-14
3.8749e-05
-2.49847e-17
3.8749e-05
-2.70606e-14
3.8749e-05
-6.90223e-14
3.8749e-05
-1.40389e-13
3.8749e-05
-2.68536e-13
3.8749e-05
-4.99665e-13
3.8749e-05
-8.92963e-13
3.8749e-05
-1.63973e-12
-1.76843e-12
4.12492e-05
1.83234e-12
4.12492e-05
2.03278e-12
4.12492e-05
1.26991e-12
4.12492e-05
7.54413e-13
4.12492e-05
4.41969e-13
4.12492e-05
2.50195e-13
4.12492e-05
1.4215e-13
4.12492e-05
8.2576e-14
4.12492e-05
4.90676e-14
4.12492e-05
2.88732e-14
4.12492e-05
1.43732e-14
4.12492e-05
3.72695e-16
4.12492e-05
-1.77562e-14
4.12492e-05
-4.59042e-14
4.12492e-05
-9.40435e-14
4.12492e-05
-1.81905e-13
4.12492e-05
-3.46001e-13
4.12492e-05
-6.31839e-13
4.12492e-05
-1.24273e-12
-1.39027e-12
4.37494e-05
1.31125e-12
4.37494e-05
1.37228e-12
4.37494e-05
7.58271e-13
4.37494e-05
4.25628e-13
4.37494e-05
2.42749e-13
4.37494e-05
1.33458e-13
4.37494e-05
7.43144e-14
4.37494e-05
4.26971e-14
4.37494e-05
2.52103e-14
4.37494e-05
1.48444e-14
4.37494e-05
7.49374e-15
4.37494e-05
3.83274e-16
4.37494e-05
-8.95991e-15
4.37494e-05
-2.35461e-14
4.37494e-05
-4.85728e-14
4.37494e-05
-9.4987e-14
4.37494e-05
-1.85815e-13
4.37494e-05
-3.45005e-13
4.37494e-05
-7.56185e-13
-9.04829e-13
4.62496e-05
5.79472e-13
4.62496e-05
5.55592e-13
4.62496e-05
2.47889e-13
4.62496e-05
1.27501e-13
4.62496e-05
7.1406e-14
4.62496e-05
3.74476e-14
4.62496e-05
2.02867e-14
4.62496e-05
1.15599e-14
4.62496e-05
6.84171e-15
4.62496e-05
4.1029e-15
4.62496e-05
2.18399e-15
4.62496e-05
2.6121e-16
4.62496e-05
-2.44332e-15
4.62496e-05
-6.72271e-15
4.62496e-05
-1.397e-14
4.62496e-05
-2.76204e-14
4.62496e-05
-5.63156e-14
4.62496e-05
-1.04177e-13
4.62496e-05
-2.76553e-13
-3.74534e-13
4.87499e-05
4.87499e-05
4.87499e-05
4.87499e-05
4.87499e-05
4.87499e-05
4.87499e-05
4.87499e-05
4.87499e-05
4.87499e-05
4.87499e-05
4.87499e-05
4.87499e-05
4.87499e-05
4.87499e-05
4.87499e-05
4.87499e-05
4.87499e-05
4.87499e-05
)
;

boundaryField
{
    top
    {
        type            calculated;
        value           uniform 0;
    }
    bottom
    {
        type            calculated;
        value           uniform 0;
    }
    inlet
    {
        type            calculated;
        value           nonuniform List<scalar> 
20
(
-1.24988e-06
-3.74964e-06
-6.24941e-06
-8.7492e-06
-1.1249e-05
-1.37488e-05
-1.62487e-05
-1.87486e-05
-2.12485e-05
-2.37485e-05
-2.62485e-05
-2.87485e-05
-3.12486e-05
-3.37487e-05
-3.62488e-05
-3.8749e-05
-4.12492e-05
-4.37494e-05
-4.62496e-05
-4.87499e-05
)
;
    }
    outlet
    {
        type            calculated;
        value           nonuniform List<scalar> 
20
(
1.24988e-06
3.74964e-06
6.24942e-06
8.7492e-06
1.1249e-05
1.37488e-05
1.62487e-05
1.87486e-05
2.12485e-05
2.37485e-05
2.62485e-05
2.87485e-05
3.12486e-05
3.37487e-05
3.62488e-05
3.8749e-05
4.12492e-05
4.37494e-05
4.62496e-05
4.87499e-05
)
;
    }
    frontAndBack
    {
        type            empty;
        value           nonuniform List<scalar> 0();
    }
}


// ************************************************************************* //
