/*--------------------------------*- C++ -*----------------------------------*\
  =========                 |
  \\      /  F ield         | OpenFOAM: The Open Source CFD Toolbox
   \\    /   O peration     | Website:  https://openfoam.org
    \\  /    A nd           | Version:  9
     \\/     M anipulation  |
\*---------------------------------------------------------------------------*/
FoamFile
{
    format      ascii;
    class       volVectorField;
    location    "1.6";
    object      U;
}
// * * * * * * * * * * * * * * * * * * * * * * * * * * * * * * * * * * * * * //

dimensions      [0 1 -1 0 0 0 0];

internalField   nonuniform List<vector> 
400
(
(0.0249976 -3.39334e-09 0)
(0.0249976 -2.71384e-09 0)
(0.0249976 -1.1397e-09 0)
(0.0249976 -6.06993e-10 0)
(0.0249976 -3.34673e-10 0)
(0.0249976 -1.77213e-10 0)
(0.0249976 -9.54592e-11 0)
(0.0249976 -4.77184e-11 0)
(0.0249976 -2.14801e-11 0)
(0.0249976 -9.15949e-12 0)
(0.0249976 -3.31641e-12 0)
(0.0249976 4.59054e-13 0)
(0.0249976 4.40535e-12 0)
(0.0249976 1.11092e-11 0)
(0.0249976 2.65297e-11 0)
(0.0249976 7.06312e-11 0)
(0.0249976 1.76482e-10 0)
(0.0249976 4.21273e-10 0)
(0.0249976 1.48877e-09 0)
(0.0249976 1.74591e-09 0)
(0.0749928 -1.16848e-08 0)
(0.0749928 -1.03876e-08 0)
(0.0749929 -5.42197e-09 0)
(0.0749929 -3.1119e-09 0)
(0.0749929 -1.79706e-09 0)
(0.0749929 -9.98962e-10 0)
(0.0749929 -5.49155e-10 0)
(0.0749929 -2.90411e-10 0)
(0.0749929 -1.43996e-10 0)
(0.0749929 -6.53435e-11 0)
(0.0749929 -2.32478e-11 0)
(0.0749929 2.19488e-12 0)
(0.0749929 2.51604e-11 0)
(0.0749929 6.25589e-11 0)
(0.0749929 1.4644e-10 0)
(0.0749929 3.58227e-10 0)
(0.0749929 8.42363e-10 0)
(0.0749929 1.87488e-09 0)
(0.0749929 5.09554e-09 0)
(0.0749929 5.59401e-09 0)
(0.124988 -2.12513e-08 0)
(0.124988 -2.0638e-08 0)
(0.124988 -1.24651e-08 0)
(0.124988 -7.542e-09 0)
(0.124988 -4.49868e-09 0)
(0.124988 -2.58687e-09 0)
(0.124988 -1.45471e-09 0)
(0.124988 -7.88312e-10 0)
(0.124988 -4.04466e-10 0)
(0.124988 -1.9038e-10 0)
(0.124988 -7.19057e-11 0)
(0.124988 -5.4299e-13 0)
(0.124988 6.08818e-11 0)
(0.124988 1.55984e-10 0)
(0.124988 3.6117e-10 0)
(0.124988 8.4341e-10 0)
(0.124988 1.89993e-09 0)
(0.124988 4.00879e-09 0)
(0.124988 9.0188e-09 0)
(0.124988 9.27569e-09 0)
(0.174984 -2.92408e-08 0)
(0.174984 -2.99058e-08 0)
(0.174984 -1.97197e-08 0)
(0.174984 -1.24211e-08 0)
(0.174984 -7.60896e-09 0)
(0.174984 -4.47406e-09 0)
(0.174984 -2.55425e-09 0)
(0.174984 -1.40504e-09 0)
(0.174984 -7.3327e-10 0)
(0.174984 -3.51456e-10 0)
(0.174984 -1.37875e-10 0)
(0.174984 -1.13943e-11 0)
(0.174984 9.16183e-11 0)
(0.174984 2.43286e-10 0)
(0.174984 5.6242e-10 0)
(0.174984 1.28477e-09 0)
(0.174984 2.81708e-09 0)
(0.174984 5.71811e-09 0)
(0.174984 1.15473e-08 0)
(0.174984 1.13928e-08 0)
(0.22498 -3.44804e-08 0)
(0.22498 -3.63354e-08 0)
(0.22498 -2.54058e-08 0)
(0.22498 -1.65492e-08 0)
(0.22498 -1.03767e-08 0)
(0.22498 -6.21804e-09 0)
(0.22498 -3.59779e-09 0)
(0.22498 -2.00068e-09 0)
(0.22498 -1.05491e-09 0)
(0.22498 -5.12041e-10 0)
(0.22498 -2.08231e-10 0)
(0.22498 -3.29736e-11 0)
(0.22498 9.9666e-11 0)
(0.22498 2.82427e-10 0)
(0.22498 6.59518e-10 0)
(0.22498 1.49648e-09 0)
(0.22498 3.23461e-09 0)
(0.22498 6.37453e-09 0)
(0.22498 1.20836e-08 0)
(0.22498 1.1604e-08 0)
(0.274977 -3.66327e-08 0)
(0.274977 -3.92845e-08 0)
(0.274977 -2.86474e-08 0)
(0.274977 -1.91784e-08 0)
(0.274977 -1.22691e-08 0)
(0.274977 -7.46956e-09 0)
(0.274977 -4.37008e-09 0)
(0.274977 -2.44911e-09 0)
(0.274977 -1.29898e-09 0)
(0.274977 -6.35209e-10 0)
(0.274977 -2.66347e-10 0)
(0.274977 -6.24829e-11 0)
(0.274977 7.5082e-11 0)
(0.274977 2.46401e-10 0)
(0.274977 5.97528e-10 0)
(0.274977 1.3805e-09 0)
(0.274977 3.0013e-09 0)
(0.274977 5.82316e-09 0)
(0.274977 1.06603e-08 0)
(0.274977 1.00086e-08 0)
(0.324974 -3.57512e-08 0)
(0.324974 -3.87078e-08 0)
(0.324974 -2.91136e-08 0)
(0.324974 -1.99214e-08 0)
(0.324974 -1.29615e-08 0)
(0.324974 -7.99566e-09 0)
(0.324974 -4.71854e-09 0)
(0.324974 -2.65676e-09 0)
(0.324974 -1.41103e-09 0)
(0.324974 -6.90976e-10 0)
(0.324974 -2.97157e-10 0)
(0.324974 -9.43094e-11 0)
(0.324974 1.66008e-11 0)
(0.324974 1.2773e-10 0)
(0.324974 3.63425e-10 0)
(0.324974 9.2407e-10 0)
(0.324974 2.13014e-09 0)
(0.324974 4.17602e-09 0)
(0.324974 7.60995e-09 0)
(0.324974 6.91815e-09 0)
(0.374972 -3.20969e-08 0)
(0.374972 -3.48673e-08 0)
(0.374972 -2.68418e-08 0)
(0.374972 -1.86846e-08 0)
(0.374972 -1.23307e-08 0)
(0.374972 -7.68907e-09 0)
(0.374972 -4.56523e-09 0)
(0.374972 -2.57249e-09 0)
(0.374972 -1.35971e-09 0)
(0.374972 -6.60878e-10 0)
(0.374972 -2.8986e-10 0)
(0.374972 -1.21456e-10 0)
(0.374972 -6.92415e-11 0)
(0.374972 -6.3116e-11 0)
(0.374972 -2.01459e-11 0)
(0.374972 1.80371e-10 0)
(0.374972 7.40814e-10 0)
(0.374972 1.68798e-09 0)
(0.374972 3.36885e-09 0)
(0.374972 2.72125e-09 0)
(0.42497 -2.61328e-08 0)
(0.42497 -2.82811e-08 0)
(0.42497 -2.21665e-08 0)
(0.42497 -1.56418e-08 0)
(0.42497 -1.04526e-08 0)
(0.42497 -6.57726e-09 0)
(0.42497 -3.91727e-09 0)
(0.42497 -2.19648e-09 0)
(0.42497 -1.14323e-09 0)
(0.42497 -5.42469e-10 0)
(0.42497 -2.40936e-10 0)
(0.42497 -1.37739e-10 0)
(0.42497 -1.70282e-10 0)
(0.42497 -3.01433e-10 0)
(0.42497 -5.0296e-10 0)
(0.42497 -7.50578e-10 0)
(0.42497 -9.76712e-10 0)
(0.42497 -1.30821e-09 0)
(0.42497 -1.56361e-09 0)
(0.42497 -2.13064e-09 0)
(0.47497 -1.84681e-08 0)
(0.47497 -1.96568e-08 0)
(0.47497 -1.56574e-08 0)
(0.47497 -1.11876e-08 0)
(0.47497 -7.57916e-09 0)
(0.47497 -4.81223e-09 0)
(0.47497 -2.86373e-09 0)
(0.47497 -1.57986e-09 0)
(0.47497 -7.90139e-10 0)
(0.47497 -3.50362e-10 0)
(0.47497 -1.55395e-10 0)
(0.47497 -1.39482e-10 0)
(0.47497 -2.71635e-10 0)
(0.47497 -5.5382e-10 0)
(0.47497 -1.01837e-09 0)
(0.47497 -1.74258e-09 0)
(0.47497 -2.79852e-09 0)
(0.47497 -4.4481e-09 0)
(0.47497 -6.67608e-09 0)
(0.47497 -7.16875e-09 0)
(0.52497 -9.81965e-09 0)
(0.52497 -9.8382e-09 0)
(0.52497 -8.0531e-09 0)
(0.52497 -5.88222e-09 0)
(0.52497 -4.09796e-09 0)
(0.52497 -2.64525e-09 0)
(0.52497 -1.56026e-09 0)
(0.52497 -8.15943e-10 0)
(0.52497 -3.54477e-10 0)
(0.52497 -1.1395e-10 0)
(0.52497 -4.61997e-11 0)
(0.52497 -1.2649e-10 0)
(0.52497 -3.58624e-10 0)
(0.52497 -7.84363e-10 0)
(0.52497 -1.49482e-09 0)
(0.52497 -2.66358e-09 0)
(0.52497 -4.49707e-09 0)
(0.52497 -7.37508e-09 0)
(0.52497 -1.14773e-08 0)
(0.52497 -1.19335e-08 0)
(0.57497 -9.65169e-10 0)
(0.57497 2.46772e-10 0)
(0.57497 -1.98732e-10 0)
(0.57497 -3.88459e-10 0)
(0.57497 -4.81305e-10 0)
(0.57497 -3.8923e-10 0)
(0.57497 -2.04081e-10 0)
(0.57497 -2.43409e-11 0)
(0.57497 9.37147e-11 0)
(0.57497 1.2791e-10 0)
(0.57497 6.8112e-11 0)
(0.57497 -1.02005e-10 0)
(0.57497 -4.19204e-10 0)
(0.57497 -9.60323e-10 0)
(0.57497 -1.8665e-09 0)
(0.57497 -3.39293e-09 0)
(0.57497 -5.86655e-09 0)
(0.57497 -9.76923e-09 0)
(0.57497 -1.55237e-08 0)
(0.57497 -1.60021e-08 0)
(0.624972 7.29402e-09 0)
(0.624972 9.63206e-09 0)
(0.624972 7.01975e-09 0)
(0.624972 4.59718e-09 0)
(0.624972 2.77496e-09 0)
(0.624972 1.62737e-09 0)
(0.624972 9.98423e-10 0)
(0.624972 6.70067e-10 0)
(0.624972 4.81412e-10 0)
(0.624972 3.34415e-10 0)
(0.624972 1.67235e-10 0)
(0.624972 -7.17005e-11 0)
(0.624972 -4.45557e-10 0)
(0.624972 -1.05684e-09 0)
(0.624972 -2.08211e-09 0)
(0.624972 -3.83565e-09 0)
(0.624972 -6.74243e-09 0)
(0.624972 -1.13701e-08 0)
(0.624972 -1.84392e-08 0)
(0.624972 -1.90081e-08 0)
(0.674974 1.41839e-08 0)
(0.674974 1.73688e-08 0)
(0.674974 1.27472e-08 0)
(0.674974 8.42449e-09 0)
(0.674974 5.21975e-09 0)
(0.674974 3.11309e-09 0)
(0.674974 1.86764e-09 0)
(0.674974 1.16057e-09 0)
(0.674974 7.47019e-10 0)
(0.674974 4.71299e-10 0)
(0.674974 2.33603e-10 0)
(0.674974 -4.20066e-11 0)
(0.674974 -4.34843e-10 0)
(0.674974 -1.06031e-09 0)
(0.674974 -2.11161e-09 0)
(0.674974 -3.9334e-09 0)
(0.674974 -7.0175e-09 0)
(0.674974 -1.19952e-08 0)
(0.674974 -1.99333e-08 0)
(0.674974 -2.06611e-08 0)
(0.724977 1.89949e-08 0)
(0.724977 2.25834e-08 0)
(0.724977 1.62501e-08 0)
(0.724977 1.05778e-08 0)
(0.724977 6.52147e-09 0)
(0.724977 3.86623e-09 0)
(0.724977 2.28612e-09 0)
(0.724977 1.38057e-09 0)
(0.724977 8.53682e-10 0)
(0.724977 5.18545e-10 0)
(0.724977 2.56619e-10 0)
(0.724977 -1.82413e-11 0)
(0.724977 -3.89219e-10 0)
(0.724977 -9.70338e-10 0)
(0.724977 -1.95069e-09 0)
(0.724977 -3.67258e-09 0)
(0.724977 -6.65447e-09 0)
(0.724977 -1.15579e-08 0)
(0.724977 -1.98185e-08 0)
(0.724977 -2.07633e-08 0)
(0.77498 2.11555e-08 0)
(0.77498 2.45624e-08 0)
(0.77498 1.70151e-08 0)
(0.77498 1.07753e-08 0)
(0.77498 6.53787e-09 0)
(0.77498 3.82155e-09 0)
(0.77498 2.22622e-09 0)
(0.77498 1.31989e-09 0)
(0.77498 7.98413e-10 0)
(0.77498 4.75549e-10 0)
(0.77498 2.35487e-10 0)
(0.77498 -3.17476e-12 0)
(0.77498 -3.15399e-10 0)
(0.77498 -8.00312e-10 0)
(0.77498 -1.62276e-09 0)
(0.77498 -3.08886e-09 0)
(0.77498 -5.69572e-09 0)
(0.77498 -1.00824e-08 0)
(0.77498 -1.80314e-08 0)
(0.77498 -1.92297e-08 0)
(0.824984 2.02315e-08 0)
(0.824984 2.28191e-08 0)
(0.824984 1.48854e-08 0)
(0.824984 9.06132e-09 0)
(0.824984 5.37411e-09 0)
(0.824984 3.07804e-09 0)
(0.824984 1.7633e-09 0)
(0.824984 1.02996e-09 0)
(0.824984 6.14269e-10 0)
(0.824984 3.62023e-10 0)
(0.824984 1.79815e-10 0)
(0.824984 3.62726e-12 0)
(0.824984 -2.23795e-10 0)
(0.824984 -5.76238e-10 0)
(0.824984 -1.1779e-09 0)
(0.824984 -2.26807e-09 0)
(0.824984 -4.26918e-09 0)
(0.824984 -7.72176e-09 0)
(0.824984 -1.46451e-08 0)
(0.824984 -1.60882e-08 0)
(0.874988 1.61577e-08 0)
(0.874988 1.74302e-08 0)
(0.874988 1.03155e-08 0)
(0.874988 5.95193e-09 0)
(0.874988 3.43383e-09 0)
(0.874988 1.91474e-09 0)
(0.874988 1.0759e-09 0)
(0.874988 6.20473e-10 0)
(0.874988 3.66645e-10 0)
(0.874988 2.15159e-10 0)
(0.874988 1.07574e-10 0)
(0.874988 4.28913e-12 0)
(0.874988 -1.29875e-10 0)
(0.874988 -3.38533e-10 0)
(0.874988 -6.95684e-10 0)
(0.874988 -1.3537e-09 0)
(0.874988 -2.61321e-09 0)
(0.874988 -4.82675e-09 0)
(0.874988 -1.00011e-08 0)
(0.874988 -1.15608e-08 0)
(0.924993 9.5922e-09 0)
(0.924993 9.65817e-09 0)
(0.924993 4.84779e-09 0)
(0.924993 2.57229e-09 0)
(0.924993 1.43609e-09 0)
(0.924993 7.67929e-10 0)
(0.924993 4.19638e-10 0)
(0.924993 2.391e-10 0)
(0.924993 1.40943e-10 0)
(0.924993 8.35639e-11 0)
(0.924993 4.31329e-11 0)
(0.924993 3.38393e-12 0)
(0.924993 -5.02997e-11 0)
(0.924993 -1.34833e-10 0)
(0.924993 -2.79997e-10 0)
(0.924993 -5.52872e-10 0)
(0.924993 -1.10697e-09 0)
(0.924993 -2.07634e-09 0)
(0.924993 -4.99509e-09 0)
(0.924993 -6.30317e-09 0)
(0.974998 2.96295e-09 0)
(0.974998 2.76942e-09 0)
(0.974998 1.10397e-09 0)
(0.974998 5.12467e-10 0)
(0.974998 2.74873e-10 0)
(0.974998 1.36701e-10 0)
(0.974998 7.15179e-11 0)
(0.974998 4.0278e-11 0)
(0.974998 2.37452e-11 0)
(0.974998 1.42177e-11 0)
(0.974998 7.54866e-12 0)
(0.974998 5.14669e-13 0)
(0.974998 -1.01712e-11 0)
(0.974998 -2.7412e-11 0)
(0.974998 -5.56039e-11 0)
(0.974998 -1.09442e-10 0)
(0.974998 -2.30852e-10 0)
(0.974998 -4.33815e-10 0)
(0.974998 -1.30001e-09 0)
(0.974998 -1.81822e-09 0)
)
;

boundaryField
{
    top
    {
        type            fixedValue;
        value           uniform (1 0 0);
    }
    bottom
    {
        type            fixedValue;
        value           uniform (0 0 0);
    }
    inlet
    {
        type            zeroGradient;
    }
    outlet
    {
        type            zeroGradient;
    }
    frontAndBack
    {
        type            empty;
    }
}


// ************************************************************************* //
