/*--------------------------------*- C++ -*----------------------------------*\
  =========                 |
  \\      /  F ield         | OpenFOAM: The Open Source CFD Toolbox
   \\    /   O peration     | Website:  https://openfoam.org
    \\  /    A nd           | Version:  9
     \\/     M anipulation  |
\*---------------------------------------------------------------------------*/
FoamFile
{
    format      ascii;
    class       volScalarField;
    location    "3.4";
    object      p;
}
// * * * * * * * * * * * * * * * * * * * * * * * * * * * * * * * * * * * * * //

dimensions      [0 2 -2 0 0 0 0];

internalField   nonuniform List<scalar> 
400
(
4.74317e-10
7.86084e-10
7.60115e-10
7.23013e-10
6.62091e-10
5.89939e-10
5.14774e-10
4.38301e-10
3.61794e-10
2.85897e-10
2.10265e-10
1.34412e-10
5.81653e-11
-1.84415e-11
-9.53287e-11
-1.72642e-10
-2.48394e-10
-3.17131e-10
-4.0396e-10
-2.55211e-10
4.49841e-10
7.48926e-10
7.20665e-10
6.99383e-10
6.47763e-10
5.81303e-10
5.0978e-10
4.3551e-10
3.60296e-10
2.85146e-10
2.09945e-10
1.3437e-10
5.83783e-11
-1.7844e-11
-9.39328e-11
-1.69628e-10
-2.41995e-10
-3.02428e-10
-3.94352e-10
-2.48674e-10
4.54816e-10
7.52194e-10
6.98606e-10
6.84163e-10
6.37533e-10
5.7454e-10
5.05608e-10
4.33038e-10
3.58869e-10
2.84338e-10
2.09515e-10
1.34203e-10
5.84529e-11
-1.74502e-11
-9.29673e-11
-1.6774e-10
-2.38728e-10
-2.95283e-10
-4.07044e-10
-2.57822e-10
4.72277e-10
7.84979e-10
6.93961e-10
6.77739e-10
6.32004e-10
5.70155e-10
5.02586e-10
4.31059e-10
3.57585e-10
2.83498e-10
2.08975e-10
1.33893e-10
5.83403e-11
-1.73601e-11
-9.26247e-11
-1.67265e-10
-2.38745e-10
-2.95797e-10
-4.32726e-10
-2.71981e-10
4.91404e-10
8.304e-10
6.98325e-10
6.76276e-10
6.293e-10
5.67253e-10
5.0028e-10
4.29361e-10
3.56353e-10
2.82607e-10
2.08344e-10
1.33464e-10
5.80636e-11
-1.75337e-11
-9.27795e-11
-1.67765e-10
-2.40734e-10
-3.00005e-10
-4.61453e-10
-2.85436e-10
5.09063e-10
8.79482e-10
7.07158e-10
6.77501e-10
6.28285e-10
5.65243e-10
4.98378e-10
4.27802e-10
3.5513e-10
2.81667e-10
2.0764e-10
1.32942e-10
5.76543e-11
-1.79104e-11
-9.32749e-11
-1.68836e-10
-2.43661e-10
-3.05506e-10
-4.87802e-10
-2.96384e-10
5.24641e-10
9.27254e-10
7.17866e-10
6.80024e-10
6.28174e-10
5.6373e-10
4.96679e-10
4.263e-10
3.53899e-10
2.80694e-10
2.06886e-10
1.32353e-10
5.71516e-11
-1.84189e-11
-9.39573e-11
-1.70122e-10
-2.4678e-10
-3.10844e-10
-5.09012e-10
-3.04508e-10
5.3752e-10
9.69641e-10
7.28351e-10
6.8263e-10
6.2826e-10
5.62352e-10
4.95011e-10
4.24781e-10
3.52643e-10
2.79695e-10
2.06105e-10
1.3173e-10
5.66065e-11
-1.897e-11
-9.46538e-11
-1.71282e-10
-2.49416e-10
-3.1493e-10
-5.23164e-10
-3.09503e-10
5.47313e-10
1.00348e-09
7.36913e-10
6.84372e-10
6.27982e-10
5.60838e-10
4.93255e-10
4.23204e-10
3.51358e-10
2.78686e-10
2.05324e-10
1.31111e-10
5.60773e-11
-1.94677e-11
-9.51967e-11
-1.7201e-10
-2.51024e-10
-3.16963e-10
-5.29173e-10
-3.11289e-10
5.53728e-10
1.02644e-09
7.42387e-10
6.8465e-10
6.27014e-10
5.59055e-10
4.91379e-10
4.21577e-10
3.50065e-10
2.77694e-10
2.0457e-10
1.30535e-10
5.56196e-11
-1.98255e-11
-9.54462e-11
-1.72084e-10
-2.51229e-10
-3.16481e-10
-5.26635e-10
-3.09885e-10
5.56555e-10
1.03702e-09
7.44123e-10
6.83228e-10
6.25268e-10
5.57019e-10
4.89437e-10
4.19957e-10
3.48812e-10
2.76754e-10
2.03876e-10
1.30034e-10
5.52773e-11
-1.99813e-11
-9.53139e-11
-1.71382e-10
-2.49853e-10
-3.1334e-10
-5.15747e-10
-3.05429e-10
5.55609e-10
1.03449e-09
7.41979e-10
6.80218e-10
6.22879e-10
5.5488e-10
4.87562e-10
4.18447e-10
3.47669e-10
2.75912e-10
2.03273e-10
1.29633e-10
5.50743e-11
-1.991e-11
-9.47766e-11
-1.69901e-10
-2.46922e-10
-3.07689e-10
-4.97217e-10
-2.98128e-10
5.50719e-10
1.01892e-09
7.36345e-10
6.76062e-10
6.20186e-10
5.52897e-10
4.85947e-10
4.17176e-10
3.46719e-10
2.75218e-10
2.02787e-10
1.29344e-10
5.50117e-11
-1.96277e-11
-9.3886e-11
-1.67766e-10
-2.4267e-10
-2.99962e-10
-4.72214e-10
-2.8827e-10
5.41828e-10
9.9133e-10
7.28166e-10
6.71521e-10
6.17691e-10
5.51398e-10
4.84805e-10
4.16282e-10
3.46042e-10
2.74716e-10
2.02438e-10
1.29167e-10
5.5065e-11
-1.91969e-11
-9.27683e-11
-1.65226e-10
-2.37533e-10
-2.90868e-10
-4.42367e-10
-2.76252e-10
5.28963e-10
9.53806e-10
7.19003e-10
6.67616e-10
6.16011e-10
5.50736e-10
4.84342e-10
4.15881e-10
3.45705e-10
2.74438e-10
2.02233e-10
1.29085e-10
5.51875e-11
-1.87161e-11
-9.16152e-11
-1.62639e-10
-2.32136e-10
-2.81386e-10
-4.09755e-10
-2.6259e-10
5.12485e-10
9.09727e-10
7.10898e-10
6.65543e-10
6.15773e-10
5.51225e-10
4.84705e-10
4.16046e-10
3.45739e-10
2.74394e-10
2.02167e-10
1.29072e-10
5.53156e-11
-1.83093e-11
-9.06587e-11
-1.60439e-10
-2.27247e-10
-2.72702e-10
-3.76909e-10
-2.47961e-10
4.92669e-10
8.63733e-10
7.06501e-10
6.665e-10
6.17559e-10
5.5308e-10
4.85962e-10
4.16786e-10
3.46137e-10
2.7457e-10
2.02222e-10
1.29093e-10
5.53793e-11
-1.8113e-11
-9.01496e-11
-1.591e-10
-2.23736e-10
-2.66253e-10
-3.46806e-10
-2.33093e-10
4.72403e-10
8.24918e-10
7.1028e-10
6.72395e-10
6.22119e-10
5.56583e-10
4.88185e-10
4.18106e-10
3.46885e-10
2.74953e-10
2.02375e-10
1.29107e-10
5.52941e-11
-1.82913e-11
-9.03871e-11
-1.59199e-10
-2.22794e-10
-2.64347e-10
-3.24387e-10
-2.19978e-10
4.60919e-10
8.10285e-10
7.30493e-10
6.86368e-10
6.30769e-10
5.622e-10
4.91533e-10
4.20053e-10
3.48004e-10
2.75553e-10
2.0263e-10
1.29094e-10
5.49989e-11
-1.89817e-11
-9.16759e-11
-1.6142e-10
-2.25996e-10
-2.70677e-10
-3.1837e-10
-2.14789e-10
4.75185e-10
8.34759e-10
7.67156e-10
7.07859e-10
6.42831e-10
5.69325e-10
4.9559e-10
4.22373e-10
3.4934e-10
2.76288e-10
2.0295e-10
1.29053e-10
5.45399e-11
-2.00707e-11
-9.38195e-11
-1.65446e-10
-2.33136e-10
-2.85056e-10
-3.34048e-10
-2.26744e-10
)
;

boundaryField
{
    top
    {
        type            zeroGradient;
    }
    bottom
    {
        type            zeroGradient;
    }
    inlet
    {
        type            fixedValue;
        value           uniform 0;
    }
    outlet
    {
        type            fixedValue;
        value           uniform 0;
    }
    frontAndBack
    {
        type            empty;
    }
}


// ************************************************************************* //
