/*--------------------------------*- C++ -*----------------------------------*\
  =========                 |
  \\      /  F ield         | OpenFOAM: The Open Source CFD Toolbox
   \\    /   O peration     | Website:  https://openfoam.org
    \\  /    A nd           | Version:  9
     \\/     M anipulation  |
\*---------------------------------------------------------------------------*/
FoamFile
{
    format      ascii;
    class       surfaceScalarField;
    location    "3.4";
    object      phi;
}
// * * * * * * * * * * * * * * * * * * * * * * * * * * * * * * * * * * * * * //

dimensions      [0 3 -1 0 0 0 0];

internalField   nonuniform List<scalar> 
760
(
1.25e-06
-2.90506e-15
1.25e-06
-2.41758e-15
1.25e-06
-1.15158e-15
1.25e-06
-6.54823e-16
1.25e-06
-3.75887e-16
1.25e-06
-2.0658e-16
1.25e-06
-1.13215e-16
1.25e-06
-5.92897e-17
1.25e-06
-2.89477e-17
1.25e-06
-1.31853e-17
1.25e-06
-4.95093e-18
1.25e-06
1.08482e-19
1.25e-06
4.76437e-18
1.25e-06
1.23141e-17
1.25e-06
2.91793e-17
1.25e-06
7.36796e-17
1.25e-06
1.75689e-16
1.25e-06
3.92856e-16
1.25e-06
1.23743e-15
1.42836e-15
3.75e-06
-6.99334e-15
3.75e-06
-6.55335e-15
3.75e-06
-3.74685e-15
3.75e-06
-2.22996e-15
3.75e-06
-1.31597e-15
3.75e-06
-7.48796e-16
3.75e-06
-4.18271e-16
3.75e-06
-2.25209e-16
3.75e-06
-1.14595e-16
3.75e-06
-5.34849e-17
3.75e-06
-1.99457e-17
3.75e-06
2.39984e-19
3.75e-06
1.77703e-17
3.75e-06
4.5281e-17
3.75e-06
1.05406e-16
3.75e-06
2.50365e-16
3.75e-06
5.73827e-16
3.75e-06
1.23212e-15
3.75e-06
3.0029e-15
3.17354e-15
6.25e-06
-1.06366e-14
6.25e-06
-1.06713e-14
6.25e-06
-6.78349e-15
6.25e-06
-4.20069e-15
6.25e-06
-2.54551e-15
6.25e-06
-1.48351e-15
6.25e-06
-8.41938e-16
6.25e-06
-4.60522e-16
6.25e-06
-2.3882e-16
6.25e-06
-1.1364e-16
6.25e-06
-4.39108e-17
6.25e-06
-2.43189e-18
6.25e-06
3.1997e-17
6.25e-06
8.37601e-17
6.25e-06
1.94005e-16
6.25e-06
4.47874e-16
6.25e-06
9.9449e-16
6.25e-06
2.05706e-15
6.25e-06
4.35722e-15
4.36047e-15
8.75e-06
-1.33645e-14
8.75e-06
-1.39197e-14
8.75e-06
-9.47468e-15
8.75e-06
-6.07953e-15
8.75e-06
-3.77303e-15
8.75e-06
-2.2426e-15
8.75e-06
-1.29025e-15
8.75e-06
-7.14153e-16
8.75e-06
-3.74845e-16
8.75e-06
-1.80931e-16
8.75e-06
-7.24847e-17
8.75e-06
-9.26759e-18
8.75e-06
4.01225e-17
8.75e-06
1.10304e-16
8.75e-06
2.56603e-16
8.75e-06
5.84443e-16
8.75e-06
1.27259e-15
8.75e-06
2.54469e-15
8.75e-06
4.97651e-15
4.82645e-15
1.125e-05
-1.48987e-14
1.125e-05
-1.58641e-14
1.125e-05
-1.1335e-14
1.125e-05
-7.49053e-15
1.125e-05
-4.74743e-15
1.125e-05
-2.86911e-15
1.125e-05
-1.67009e-15
1.125e-05
-9.32597e-16
1.125e-05
-4.93258e-16
1.125e-05
-2.40366e-16
1.125e-05
-9.94203e-17
1.125e-05
-1.99892e-17
1.125e-05
3.66588e-17
1.125e-05
1.10975e-16
1.125e-05
2.63908e-16
1.125e-05
6.0422e-16
1.125e-05
1.30971e-15
1.125e-05
2.56194e-15
1.125e-05
4.77736e-15
4.52829e-15
1.375e-05
-1.51649e-14
1.375e-05
-1.63566e-14
1.375e-05
-1.21092e-14
1.375e-05
-8.19605e-15
1.375e-05
-5.28849e-15
1.375e-05
-3.24133e-15
1.375e-05
-1.90474e-15
1.375e-05
-1.07001e-15
1.375e-05
-5.67901e-16
1.375e-05
-2.77911e-16
1.375e-05
-1.18086e-16
1.375e-05
-3.28496e-17
1.375e-05
1.92817e-17
1.375e-05
7.86231e-17
1.375e-05
2.0195e-16
1.375e-05
4.84229e-16
1.375e-05
1.07799e-15
1.375e-05
2.09961e-15
1.375e-05
3.83612e-15
3.54676e-15
1.625e-05
-1.42136e-14
1.625e-05
-1.54268e-14
1.625e-05
-1.1729e-14
1.625e-05
-8.09129e-15
1.625e-05
-5.30067e-15
1.625e-05
-3.28687e-15
1.625e-05
-1.94537e-15
1.625e-05
-1.09573e-15
1.625e-05
-5.80587e-16
1.625e-05
-2.83296e-16
1.625e-05
-1.23035e-16
1.625e-05
-4.5209e-17
1.625e-05
-1.09447e-17
1.625e-05
1.37969e-17
1.625e-05
7.25215e-17
1.625e-05
2.32637e-16
1.625e-05
6.03845e-16
1.625e-05
1.23203e-15
1.625e-05
2.30476e-15
2.01922e-15
1.875e-05
-1.21984e-14
1.875e-05
-1.32387e-14
1.875e-05
-1.02712e-14
1.875e-05
-7.19318e-15
1.875e-05
-4.77403e-15
1.875e-05
-2.98911e-15
1.875e-05
-1.77714e-15
1.875e-05
-9.99112e-16
1.875e-05
-5.24401e-16
1.875e-05
-2.52161e-16
1.875e-05
-1.11268e-16
1.875e-05
-5.43315e-17
1.875e-05
-5.01265e-17
1.875e-05
-7.61613e-17
1.875e-05
-1.09103e-16
1.875e-05
-1.18538e-16
1.875e-05
-4.77419e-17
1.875e-05
8.16563e-17
1.875e-05
3.79954e-16
1.23399e-16
2.125e-05
-9.34333e-15
2.125e-05
-1.00486e-14
2.125e-05
-7.92593e-15
2.125e-05
-5.62104e-15
2.125e-05
-3.77758e-15
2.125e-05
-2.3858e-15
2.125e-05
-1.42032e-15
2.125e-05
-7.90958e-16
2.125e-05
-4.04975e-16
2.125e-05
-1.87078e-16
2.125e-05
-8.31096e-17
2.125e-05
-5.81474e-17
2.125e-05
-9.2592e-17
2.125e-05
-1.79073e-16
2.125e-05
-3.18446e-16
2.125e-05
-5.21823e-16
2.125e-05
-7.90043e-16
2.125e-05
-1.2051e-15
2.125e-05
-1.72695e-15
-1.94865e-15
2.375e-05
-5.92632e-15
2.375e-05
-6.18179e-15
2.375e-05
-4.96722e-15
2.375e-05
-3.57506e-15
2.375e-05
-2.44541e-15
2.375e-05
-1.56152e-15
2.375e-05
-9.26241e-16
2.375e-05
-5.01574e-16
2.375e-05
-2.39658e-16
2.375e-05
-9.72761e-17
2.375e-05
-4.23207e-17
2.375e-05
-5.58357e-17
2.375e-05
-1.32142e-16
2.375e-05
-2.80406e-16
2.375e-05
-5.26517e-16
2.375e-05
-9.23087e-16
2.375e-05
-1.52837e-15
2.375e-05
-2.47726e-15
2.375e-05
-3.80586e-15
-4.00221e-15
2.625e-05
-2.26013e-15
2.625e-05
-2.00879e-15
2.625e-05
-1.72664e-15
2.625e-05
-1.31143e-15
2.625e-05
-9.5768e-16
2.625e-05
-6.34538e-16
2.625e-05
-3.68852e-16
2.625e-05
-1.75612e-16
2.625e-05
-5.44528e-17
2.625e-05
2.92882e-18
2.625e-05
4.48718e-18
2.625e-05
-4.80366e-17
2.625e-05
-1.63154e-16
2.625e-05
-3.65747e-16
2.625e-05
-7.04518e-16
2.625e-05
-1.26937e-15
2.625e-05
-2.17198e-15
2.625e-05
-3.59314e-15
2.625e-05
-5.66127e-15
-5.85274e-15
2.875e-05
1.32509e-15
2.875e-05
2.07417e-15
2.875e-05
1.43329e-15
2.875e-05
8.85182e-16
2.875e-05
4.82737e-16
2.875e-05
2.60788e-16
2.875e-05
1.67233e-16
2.875e-05
1.35707e-16
2.875e-05
1.20645e-16
2.875e-05
9.68461e-17
2.875e-05
4.91805e-17
2.875e-05
-3.65995e-17
2.875e-05
-1.81466e-16
2.875e-05
-4.23026e-16
2.875e-05
-8.27873e-16
2.875e-05
-1.51545e-15
2.875e-05
-2.64327e-15
2.875e-05
-4.43124e-15
2.875e-05
-7.12169e-15
-7.33504e-15
3.125e-05
4.49864e-15
3.125e-05
5.66585e-15
3.125e-05
4.14802e-15
3.125e-05
2.73245e-15
3.125e-05
1.6775e-15
3.125e-05
9.94509e-16
3.125e-05
6.01153e-16
3.125e-05
3.8383e-16
3.125e-05
2.57442e-16
3.125e-05
1.68735e-16
3.125e-05
8.38156e-17
3.125e-05
-2.40692e-17
3.125e-05
-1.84825e-16
3.125e-05
-4.44115e-16
3.125e-05
-8.795e-16
3.125e-05
-1.62917e-15
3.125e-05
-2.88525e-15
3.125e-05
-4.89878e-15
3.125e-05
-8.04749e-15
-8.31148e-15
3.375e-05
6.95141e-15
3.375e-05
8.38508e-15
3.375e-05
6.08383e-15
3.375e-05
3.98606e-15
3.375e-05
2.46232e-15
3.375e-05
1.46332e-15
3.375e-05
8.70622e-16
3.375e-05
5.32472e-16
3.375e-05
3.35289e-16
3.375e-05
2.07228e-16
3.375e-05
1.02505e-16
3.375e-05
-1.29032e-17
3.375e-05
-1.73071e-16
3.375e-05
-4.2608e-16
3.375e-05
-8.52142e-16
3.375e-05
-1.59536e-15
3.375e-05
-2.86751e-15
3.375e-05
-4.93915e-15
3.375e-05
-8.33864e-15
-8.67994e-15
3.625e-05
8.41118e-15
3.625e-05
9.89817e-15
3.625e-05
6.98084e-15
3.625e-05
4.47849e-15
3.625e-05
2.73822e-15
3.625e-05
1.61123e-15
3.625e-05
9.45374e-16
3.625e-05
5.65556e-16
3.625e-05
3.45892e-16
3.625e-05
2.0804e-16
3.625e-05
1.02872e-16
3.625e-05
-4.77772e-18
3.625e-05
-1.48041e-16
3.625e-05
-3.71643e-16
3.625e-05
-7.49813e-16
3.625e-05
-1.41863e-15
3.625e-05
-2.59115e-15
3.625e-05
-4.53974e-15
3.625e-05
-7.94253e-15
-8.38038e-15
3.875e-05
8.68545e-15
3.875e-05
9.96983e-15
3.875e-05
6.70408e-15
3.875e-05
4.16443e-15
3.875e-05
2.49876e-15
3.875e-05
1.4465e-15
3.875e-05
8.35893e-16
3.875e-05
4.92133e-16
3.875e-05
2.95753e-16
3.875e-05
1.75275e-16
3.875e-05
8.6798e-17
3.875e-05
-1.89812e-19
3.875e-05
-1.13425e-16
3.875e-05
-2.89192e-16
3.875e-05
-5.88154e-16
3.875e-05
-1.12495e-15
3.875e-05
-2.09312e-15
3.875e-05
-3.7406e-15
3.875e-05
-6.86877e-15
-7.4079e-15
4.125e-05
7.67585e-15
4.125e-05
8.51552e-15
4.125e-05
5.31981e-15
4.125e-05
3.16035e-15
4.125e-05
1.85146e-15
4.125e-05
1.04806e-15
4.125e-05
5.95439e-16
4.125e-05
3.45877e-16
4.125e-05
2.05515e-16
4.125e-05
1.20909e-16
4.125e-05
6.01498e-17
4.125e-05
1.50275e-18
4.125e-05
-7.44253e-17
4.125e-05
-1.92314e-16
4.125e-05
-3.93981e-16
4.125e-05
-7.62026e-16
4.125e-05
-1.44941e-15
4.125e-05
-2.64676e-15
4.125e-05
-5.20576e-15
-5.8238e-15
4.375e-05
5.49293e-15
4.375e-05
5.74861e-15
4.375e-05
3.17646e-15
4.375e-05
1.78302e-15
4.375e-05
1.01691e-15
4.375e-05
5.59055e-16
4.375e-05
3.11291e-16
4.375e-05
1.7884e-16
4.375e-05
1.05605e-16
4.375e-05
6.21752e-17
4.375e-05
3.136e-17
4.375e-05
1.57056e-18
4.375e-05
-3.75594e-17
4.375e-05
-9.86475e-17
4.375e-05
-2.03486e-16
4.375e-05
-3.97907e-16
4.375e-05
-7.78383e-16
4.375e-05
-1.4452e-15
4.375e-05
-3.16764e-15
-3.79032e-15
4.625e-05
2.42745e-15
4.625e-05
2.32746e-15
4.625e-05
1.03837e-15
4.625e-05
5.34111e-16
4.625e-05
2.99144e-16
4.625e-05
1.56859e-16
4.625e-05
8.49808e-17
4.625e-05
4.84246e-17
4.625e-05
2.86613e-17
4.625e-05
1.71897e-17
4.625e-05
9.13683e-18
4.625e-05
1.08023e-18
4.625e-05
-1.0244e-17
4.625e-05
-2.81737e-17
4.625e-05
-5.85226e-17
4.625e-05
-1.15703e-16
4.625e-05
-2.35914e-16
4.625e-05
-4.36324e-16
4.625e-05
-1.15847e-15
-1.56892e-15
4.875e-05
4.875e-05
4.875e-05
4.875e-05
4.875e-05
4.875e-05
4.875e-05
4.875e-05
4.875e-05
4.875e-05
4.875e-05
4.875e-05
4.875e-05
4.875e-05
4.875e-05
4.875e-05
4.875e-05
4.875e-05
4.875e-05
)
;

boundaryField
{
    top
    {
        type            calculated;
        value           uniform 0;
    }
    bottom
    {
        type            calculated;
        value           uniform 0;
    }
    inlet
    {
        type            calculated;
        value           nonuniform List<scalar> 
20
(
-1.25e-06
-3.75e-06
-6.25e-06
-8.75e-06
-1.125e-05
-1.375e-05
-1.625e-05
-1.875e-05
-2.125e-05
-2.375e-05
-2.625e-05
-2.875e-05
-3.125e-05
-3.375e-05
-3.625e-05
-3.875e-05
-4.125e-05
-4.375e-05
-4.625e-05
-4.875e-05
)
;
    }
    outlet
    {
        type            calculated;
        value           nonuniform List<scalar> 
20
(
1.25e-06
3.75e-06
6.25e-06
8.75e-06
1.125e-05
1.375e-05
1.625e-05
1.875e-05
2.125e-05
2.375e-05
2.625e-05
2.875e-05
3.125e-05
3.375e-05
3.625e-05
3.875e-05
4.125e-05
4.375e-05
4.625e-05
4.875e-05
)
;
    }
    frontAndBack
    {
        type            empty;
        value           nonuniform List<scalar> 0();
    }
}


// ************************************************************************* //
