/*--------------------------------*- C++ -*----------------------------------*\
  =========                 |
  \\      /  F ield         | OpenFOAM: The Open Source CFD Toolbox
   \\    /   O peration     | Website:  https://openfoam.org
    \\  /    A nd           | Version:  9
     \\/     M anipulation  |
\*---------------------------------------------------------------------------*/
FoamFile
{
    format      ascii;
    class       volVectorField;
    location    "3.4";
    object      U;
}
// * * * * * * * * * * * * * * * * * * * * * * * * * * * * * * * * * * * * * //

dimensions      [0 1 -1 0 0 0 0];

internalField   nonuniform List<vector> 
400
(
(0.025 -1.42167e-11 0)
(0.025 -1.13721e-11 0)
(0.025 -4.7802e-12 0)
(0.025 -2.54819e-12 0)
(0.025 -1.40653e-12 0)
(0.025 -7.46014e-13 0)
(0.025 -4.02495e-13 0)
(0.025 -2.01577e-13 0)
(0.025 -9.09348e-14 0)
(0.025 -3.87912e-14 0)
(0.025 -1.39816e-14 0)
(0.025 2.07192e-15 0)
(0.025 1.87796e-14 0)
(0.025 4.72067e-14 0)
(0.025 1.1252e-13 0)
(0.025 2.98367e-13 0)
(0.025 7.43439e-13 0)
(0.025 1.77034e-12 0)
(0.025 6.23896e-12 0)
(0.025 7.31464e-12 0)
(0.075 -4.89509e-11 0)
(0.075 -4.3519e-11 0)
(0.075 -2.27201e-11 0)
(0.075 -1.30425e-11 0)
(0.075 -7.53347e-12 0)
(0.075 -4.18908e-12 0)
(0.075 -2.30356e-12 0)
(0.075 -1.21858e-12 0)
(0.075 -6.04398e-13 0)
(0.075 -2.74308e-13 0)
(0.075 -9.75894e-14 0)
(0.075 9.25399e-15 0)
(0.075 1.05647e-13 0)
(0.075 2.62677e-13 0)
(0.075 6.14865e-13 0)
(0.075 1.5033e-12 0)
(0.075 3.53324e-12 0)
(0.075 7.86002e-12 0)
(0.075 2.13478e-11 0)
(0.075 2.34341e-11 0)
(0.125 -8.90246e-11 0)
(0.125 -8.64554e-11 0)
(0.125 -5.2219e-11 0)
(0.125 -3.15954e-11 0)
(0.125 -1.88465e-11 0)
(0.125 -1.08375e-11 0)
(0.125 -6.09459e-12 0)
(0.125 -3.30283e-12 0)
(0.125 -1.69477e-12 0)
(0.125 -7.97898e-13 0)
(0.125 -3.01588e-13 0)
(0.125 -2.64544e-15 0)
(0.125 2.54643e-13 0)
(0.125 6.52981e-13 0)
(0.125 1.51254e-12 0)
(0.125 3.53275e-12 0)
(0.125 7.95865e-12 0)
(0.125 1.67925e-11 0)
(0.125 3.77791e-11 0)
(0.125 3.88551e-11 0)
(0.175 -1.22494e-10 0)
(0.175 -1.25279e-10 0)
(0.175 -8.26089e-11 0)
(0.175 -5.20342e-11 0)
(0.175 -3.18757e-11 0)
(0.175 -1.87431e-11 0)
(0.175 -1.07007e-11 0)
(0.175 -5.88651e-12 0)
(0.175 -3.07238e-12 0)
(0.175 -1.47294e-12 0)
(0.175 -5.78272e-13 0)
(0.175 -4.84839e-14 0)
(0.175 3.8298e-13 0)
(0.175 1.0182e-12 0)
(0.175 2.35496e-12 0)
(0.175 5.38086e-12 0)
(0.175 1.17996e-11 0)
(0.175 2.39517e-11 0)
(0.175 4.83703e-11 0)
(0.175 4.7723e-11 0)
(0.225 -1.44443e-10 0)
(0.225 -1.52214e-10 0)
(0.225 -1.0643e-10 0)
(0.225 -6.93282e-11 0)
(0.225 -4.34709e-11 0)
(0.225 -2.60496e-11 0)
(0.225 -1.50729e-11 0)
(0.225 -8.38229e-12 0)
(0.225 -4.42029e-12 0)
(0.225 -2.14611e-12 0)
(0.225 -8.73414e-13 0)
(0.225 -1.39278e-13 0)
(0.225 4.16317e-13 0)
(0.225 1.18181e-12 0)
(0.225 2.7614e-12 0)
(0.225 6.26747e-12 0)
(0.225 1.35486e-11 0)
(0.225 2.67014e-11 0)
(0.225 5.06165e-11 0)
(0.225 4.86075e-11 0)
(0.275 -1.5346e-10 0)
(0.275 -1.64569e-10 0)
(0.275 -1.2001e-10 0)
(0.275 -8.03431e-11 0)
(0.275 -5.13989e-11 0)
(0.275 -3.1293e-11 0)
(0.275 -1.83087e-11 0)
(0.275 -1.02613e-11 0)
(0.275 -5.4432e-12 0)
(0.275 -2.66255e-12 0)
(0.275 -1.11727e-12 0)
(0.275 -2.63298e-13 0)
(0.275 3.1293e-13 0)
(0.275 1.03051e-12 0)
(0.275 2.50135e-12 0)
(0.275 5.78131e-12 0)
(0.275 1.25709e-11 0)
(0.275 2.43915e-11 0)
(0.275 4.4654e-11 0)
(0.275 4.19243e-11 0)
(0.325 -1.49767e-10 0)
(0.325 -1.62154e-10 0)
(0.325 -1.21963e-10 0)
(0.325 -8.34558e-11 0)
(0.325 -5.42998e-11 0)
(0.325 -3.34972e-11 0)
(0.325 -1.97688e-11 0)
(0.325 -1.11316e-11 0)
(0.325 -5.91303e-12 0)
(0.325 -2.89659e-12 0)
(0.325 -1.24674e-12 0)
(0.325 -3.96979e-13 0)
(0.325 6.75817e-14 0)
(0.325 5.33022e-13 0)
(0.325 1.52032e-12 0)
(0.325 3.86894e-12 0)
(0.325 8.92122e-12 0)
(0.325 1.74914e-11 0)
(0.325 3.18761e-11 0)
(0.325 2.89785e-11 0)
(0.375 -1.34459e-10 0)
(0.375 -1.46065e-10 0)
(0.375 -1.12446e-10 0)
(0.375 -7.82751e-11 0)
(0.375 -5.16575e-11 0)
(0.375 -3.22131e-11 0)
(0.375 -1.91268e-11 0)
(0.375 -1.07789e-11 0)
(0.375 -5.69837e-12 0)
(0.375 -2.77083e-12 0)
(0.375 -1.21653e-12 0)
(0.375 -5.11001e-13 0)
(0.375 -2.92317e-13 0)
(0.375 -2.66718e-13 0)
(0.375 -8.67182e-14 0)
(0.375 7.53327e-13 0)
(0.375 3.10113e-12 0)
(0.375 7.06893e-12 0)
(0.375 1.41102e-11 0)
(0.375 1.13977e-11 0)
(0.425 -1.09475e-10 0)
(0.425 -1.18475e-10 0)
(0.425 -9.28605e-11 0)
(0.425 -6.55284e-11 0)
(0.425 -4.37901e-11 0)
(0.425 -2.75557e-11 0)
(0.425 -1.64126e-11 0)
(0.425 -9.20401e-12 0)
(0.425 -4.79173e-12 0)
(0.425 -2.27499e-12 0)
(0.425 -1.0118e-12 0)
(0.425 -5.79444e-13 0)
(0.425 -7.1579e-13 0)
(0.425 -1.26518e-12 0)
(0.425 -2.10936e-12 0)
(0.425 -3.14655e-12 0)
(0.425 -4.0936e-12 0)
(0.425 -5.48198e-12 0)
(0.425 -6.55162e-12 0)
(0.425 -8.92658e-12 0)
(0.475 -7.73667e-11 0)
(0.475 -8.23468e-11 0)
(0.475 -6.5593e-11 0)
(0.475 -4.68688e-11 0)
(0.475 -3.17527e-11 0)
(0.475 -2.01618e-11 0)
(0.475 -1.19993e-11 0)
(0.475 -6.62096e-12 0)
(0.475 -3.31262e-12 0)
(0.475 -1.47028e-12 0)
(0.475 -6.53521e-13 0)
(0.475 -5.86836e-13 0)
(0.475 -1.14045e-12 0)
(0.475 -2.3225e-12 0)
(0.475 -4.26844e-12 0)
(0.475 -7.30204e-12 0)
(0.475 -1.1725e-11 0)
(0.475 -1.86346e-11 0)
(0.475 -2.79673e-11 0)
(0.475 -3.00309e-11 0)
(0.525 -4.11372e-11 0)
(0.525 -4.12152e-11 0)
(0.525 -3.37375e-11 0)
(0.525 -2.46437e-11 0)
(0.525 -1.71693e-11 0)
(0.525 -1.10838e-11 0)
(0.525 -6.53883e-12 0)
(0.525 -3.42078e-12 0)
(0.525 -1.48753e-12 0)
(0.525 -4.79834e-13 0)
(0.525 -1.96003e-13 0)
(0.525 -5.32352e-13 0)
(0.525 -1.50479e-12 0)
(0.525 -3.28817e-12 0)
(0.525 -6.26422e-12 0)
(0.525 -1.11599e-11 0)
(0.525 -1.88399e-11 0)
(0.525 -3.08954e-11 0)
(0.525 -4.8079e-11 0)
(0.525 -4.99899e-11 0)
(0.575 -4.04469e-12 0)
(0.575 1.03222e-12 0)
(0.575 -8.34205e-13 0)
(0.575 -1.62929e-12 0)
(0.575 -2.01831e-12 0)
(0.575 -1.63277e-12 0)
(0.575 -8.57338e-13 0)
(0.575 -1.04457e-13 0)
(0.575 3.9017e-13 0)
(0.575 5.3354e-13 0)
(0.575 2.83072e-13 0)
(0.575 -4.29575e-13 0)
(0.575 -1.75837e-12 0)
(0.575 -4.02513e-12 0)
(0.575 -7.82098e-12 0)
(0.575 -1.42149e-11 0)
(0.575 -2.45764e-11 0)
(0.575 -4.0924e-11 0)
(0.575 -6.50291e-11 0)
(0.575 -6.7033e-11 0)
(0.625 3.05542e-11 0)
(0.625 4.03486e-11 0)
(0.625 2.94053e-11 0)
(0.625 1.92566e-11 0)
(0.625 1.1623e-11 0)
(0.625 6.81537e-12 0)
(0.625 4.18042e-12 0)
(0.625 2.80485e-12 0)
(0.625 2.0146e-12 0)
(0.625 1.39889e-12 0)
(0.625 6.98592e-13 0)
(0.625 -3.02308e-13 0)
(0.625 -1.86851e-12 0)
(0.625 -4.42916e-12 0)
(0.625 -8.72381e-12 0)
(0.625 -1.60691e-11 0)
(0.625 -2.82451e-11 0)
(0.625 -4.76296e-11 0)
(0.625 -7.72414e-11 0)
(0.625 -7.96246e-11 0)
(0.675 5.94166e-11 0)
(0.675 7.2759e-11 0)
(0.675 5.33986e-11 0)
(0.675 3.52902e-11 0)
(0.675 2.1865e-11 0)
(0.675 1.30397e-11 0)
(0.675 7.82208e-12 0)
(0.675 4.86005e-12 0)
(0.675 3.12767e-12 0)
(0.675 1.97263e-12 0)
(0.675 9.76939e-13 0)
(0.675 -1.77593e-13 0)
(0.675 -1.82331e-12 0)
(0.675 -4.44323e-12 0)
(0.675 -8.84698e-12 0)
(0.675 -1.64783e-11 0)
(0.675 -2.93971e-11 0)
(0.675 -5.02479e-11 0)
(0.675 -8.34999e-11 0)
(0.675 -8.65489e-11 0)
(0.725 7.95708e-11 0)
(0.725 9.4604e-11 0)
(0.725 6.80732e-11 0)
(0.725 4.43111e-11 0)
(0.725 2.73186e-11 0)
(0.725 1.6195e-11 0)
(0.725 9.57559e-12 0)
(0.725 5.7821e-12 0)
(0.725 3.57488e-12 0)
(0.725 2.17092e-12 0)
(0.725 1.07375e-12 0)
(0.725 -7.7733e-14 0)
(0.725 -1.63174e-12 0)
(0.725 -4.06594e-12 0)
(0.725 -8.17258e-12 0)
(0.725 -1.53854e-11 0)
(0.725 -2.78761e-11 0)
(0.725 -4.84159e-11 0)
(0.725 -8.30192e-11 0)
(0.725 -8.6977e-11 0)
(0.775 8.86217e-11 0)
(0.775 1.02894e-10 0)
(0.775 7.12778e-11 0)
(0.775 4.51387e-11 0)
(0.775 2.73875e-11 0)
(0.775 1.60082e-11 0)
(0.775 9.32499e-12 0)
(0.775 5.52819e-12 0)
(0.775 3.34372e-12 0)
(0.775 1.99116e-12 0)
(0.775 9.85538e-13 0)
(0.775 -1.42641e-14 0)
(0.775 -1.32205e-12 0)
(0.775 -3.35325e-12 0)
(0.775 -6.79855e-12 0)
(0.775 -1.29398e-11 0)
(0.775 -2.38596e-11 0)
(0.775 -4.22349e-11 0)
(0.775 -7.55328e-11 0)
(0.775 -8.05525e-11 0)
(0.825 8.47511e-11 0)
(0.825 9.55913e-11 0)
(0.825 6.2356e-11 0)
(0.825 3.79585e-11 0)
(0.825 2.25123e-11 0)
(0.825 1.28935e-11 0)
(0.825 7.38585e-12 0)
(0.825 4.31388e-12 0)
(0.825 2.57262e-12 0)
(0.825 1.5159e-12 0)
(0.825 7.5254e-13 0)
(0.825 1.45374e-14 0)
(0.825 -9.3798e-13 0)
(0.825 -2.41414e-12 0)
(0.825 -4.93452e-12 0)
(0.825 -9.50105e-12 0)
(0.825 -1.78834e-11 0)
(0.825 -3.23458e-11 0)
(0.825 -6.13475e-11 0)
(0.825 -6.7393e-11 0)
(0.875 6.76861e-11 0)
(0.875 7.30168e-11 0)
(0.875 4.3213e-11 0)
(0.875 2.49339e-11 0)
(0.875 1.4385e-11 0)
(0.875 8.02103e-12 0)
(0.875 4.50685e-12 0)
(0.875 2.59899e-12 0)
(0.875 1.53579e-12 0)
(0.875 9.01097e-13 0)
(0.875 4.50193e-13 0)
(0.875 1.75134e-14 0)
(0.875 -5.44413e-13 0)
(0.875 -1.41833e-12 0)
(0.875 -2.91454e-12 0)
(0.875 -5.67094e-12 0)
(0.875 -1.0947e-11 0)
(0.875 -2.02194e-11 0)
(0.875 -4.18945e-11 0)
(0.875 -4.84279e-11 0)
(0.925 4.01841e-11 0)
(0.925 4.04621e-11 0)
(0.925 2.03147e-11 0)
(0.925 1.07827e-11 0)
(0.925 6.02129e-12 0)
(0.925 3.22094e-12 0)
(0.925 1.76068e-12 0)
(0.925 1.00335e-12 0)
(0.925 5.91553e-13 0)
(0.925 3.5066e-13 0)
(0.925 1.80715e-13 0)
(0.925 1.39065e-14 0)
(0.925 -2.11397e-13 0)
(0.925 -5.66014e-13 0)
(0.925 -1.1749e-12 0)
(0.925 -2.3191e-12 0)
(0.925 -4.64128e-12 0)
(0.925 -8.70341e-12 0)
(0.925 -2.0928e-11 0)
(0.925 -2.64054e-11 0)
(0.975 1.24135e-11 0)
(0.975 1.16041e-11 0)
(0.975 4.63068e-12 0)
(0.975 2.15296e-12 0)
(0.975 1.15618e-12 0)
(0.975 5.76272e-13 0)
(0.975 3.02142e-13 0)
(0.975 1.70368e-13 0)
(0.975 1.00477e-13 0)
(0.975 6.01251e-14 0)
(0.975 3.17835e-14 0)
(0.975 2.07046e-15 0)
(0.975 -4.31006e-14 0)
(0.975 -1.15846e-13 0)
(0.975 -2.34632e-13 0)
(0.975 -4.6117e-13 0)
(0.975 -9.70733e-13 0)
(0.975 -1.82231e-12 0)
(0.975 -5.44901e-12 0)
(0.975 -7.61794e-12 0)
)
;

boundaryField
{
    top
    {
        type            fixedValue;
        value           uniform (1 0 0);
    }
    bottom
    {
        type            fixedValue;
        value           uniform (0 0 0);
    }
    inlet
    {
        type            zeroGradient;
    }
    outlet
    {
        type            zeroGradient;
    }
    frontAndBack
    {
        type            empty;
    }
}


// ************************************************************************* //
